LAMMPS (29 Sep 2021 - Update 3)
# PREREQUISITES:
#
#   1) You must use moltemplate.sh to create 3 files:
#        system.data  system.in.init  system.in.settings
#     (See README_setup.sh for details.)
#   2) You must equilibrate the system beforehand using "run.in.npt".
#      This will create the file "system_after_npt.data" which this file reads.
#      (Note: I have not verified that this equilibration protocol works well.)

# ------------------------------- Initialization Section --------------------

include      "system.in.init"        # specify the style of force field used
    # -- Default styles (for solo "SPCE" water) --
    units        real
    atom_style   full
    pair_style   lj/charmm/coul/long 9.0 10.0
    bond_style   harmonic
    angle_style  harmonic
    kspace_style pppm 0.0001
    #pair_modify  mix arithmetic  # LEAVE THIS UNSPECIFIED!


# ------------------------------- Atom Definition Section -------------------

# Read the coordinates generated by an earlier NPT simulation

read_data    "system_after_npt.data"
Reading data file ...
  orthogonal box = (-0.065120181 -0.065120181 -0.065120181) to (31.099320 31.099320 31.099320)
  1 by 1 by 1 MPI processor grid
  reading atoms ...
  3016 atoms
  reading velocities ...
  3016 velocities
  scanning bonds ...
  2 = max bonds/atom
  scanning angles ...
  1 = max angles/atom
  reading bonds ...
  2000 bonds
  reading angles ...
  1000 angles
Finding 1-2 1-3 1-4 neighbors ...
  special bond factors lj:    0        0        0       
  special bond factors coul:  0        0        0       
     2 = max # of 1-2 neighbors
     1 = max # of 1-3 neighbors
     1 = max # of 1-4 neighbors
     2 = max # of special neighbors
  special bonds CPU = 0.000 seconds
  read_data CPU = 0.013 seconds

# (The "write_restart" and "read_restart" commands were buggy in 2012,
#  but they should work also.  I prefer "write_data" and "read_data".)


# ------------------------------- Settings Section --------------------------

include      "system.in.settings"    # load the force field parameters
    bond_coeff   1         600.0   1.0
    angle_coeff  1       75.0    109.47
    pair_coeff   1 1  0.1553  3.166
    pair_coeff   2 2  0.0     0.0
    group spce type  1  2
3000 atoms in group spce
    # Note: Since we are using RATTLE constraints, the bond and angle strength
    # parameters ("600.0", "75.0") do not matter. But the equilibrium bond
    # length ("1.0") and equilibrium angle ("109.47") does matter. LAMMPS
    # obtains these numbers from the bond_coeff and angle_coeff commands above.
    pair_coeff 3 3  0.3526418 2.1595384928
    pair_coeff 4 4   0.0127850  4.8304528498

# ------------------------------- Run Section -------------------------------
# -- simulation protocol --



timestep     1.0
dump         1 all custom 500 traj_nvt.lammpstrj id mol type x y z ix iy iz
fix          fxnvt all nvt temp 300.0 300.0 500.0 tchain 1

include      "system.in.constraints" # apply constraints (after minimization
    group spce type  1  2
3000 atoms in group spce
    fix fRattleSPCE spce rattle 0.0001 10 100 b 1 a 1
       0 = # of size 2 clusters
       0 = # of size 3 clusters
       0 = # of size 4 clusters
    1000 = # of frozen angles
  find clusters CPU = 0.000 seconds
    # Remember to put this command in your LAMMPS input script:
    #  include system.in.constraints
    # ...after minimization and after all integration fixes
                                     # and after all integration fixes)

thermo       500

run          10000
PPPM initialization ...
  using 12-bit tables for long-range coulomb (../kspace.cpp:340)
  G vector (1/distance) = 0.26320807
  grid = 16 16 16
  stencil order = 5
  estimated absolute RMS force accuracy = 0.033315353
  estimated relative force accuracy = 0.00010032819
  using double precision FFTW3
  3d grid and FFT values/proc = 12167 4096
Neighbor list info ...
  update every 1 steps, delay 10 steps, check yes
  max neighbors/atom: 2000, page size: 100000
  master list distance cutoff = 12
  ghost atom cutoff = 12
  binsize = 6, bins = 6 6 6
  1 neighbor lists, perpetual/occasional/extra = 1 0 0
  (1) pair lj/charmm/coul/long, perpetual
      attributes: half, newton on
      pair build: half/bin/newton
      stencil: half/bin/3d
      bin: standard
SHAKE stats (type/ave/delta/count) on step 0
     1   1.00002   1.25721e-06     3000
     1   109.470   0.000151001     1000
Per MPI rank memory allocation (min/avg/max) = 23.24 | 23.24 | 23.24 Mbytes
Step Temp E_pair E_mol TotEng Press 
       0    300.94109   -12578.071            0   -10770.518    181.24597 
SHAKE stats (type/ave/delta/count) on step 100
     1   1.00000   4.75158e-07     3000
     1   109.470   5.14957e-05     1000
SHAKE stats (type/ave/delta/count) on step 200
     1   1.00000   4.53093e-07     3000
     1   109.470   5.08604e-05     1000
SHAKE stats (type/ave/delta/count) on step 300
     1   1.00000   4.89022e-07     3000
     1   109.470   4.43950e-05     1000
SHAKE stats (type/ave/delta/count) on step 400
     1   1.00000   4.81859e-07     3000
     1   109.470   4.63069e-05     1000
SHAKE stats (type/ave/delta/count) on step 500
     1   1.00000   5.48690e-07     3000
     1   109.470   5.94680e-05     1000
     500    300.88069   -12584.491            0   -10777.302     340.7461 
SHAKE stats (type/ave/delta/count) on step 600
     1   1.00000   4.50691e-07     3000
     1   109.470   5.61363e-05     1000
SHAKE stats (type/ave/delta/count) on step 700
     1   1.00000   6.74707e-07     3000
     1   109.470   5.22888e-05     1000
SHAKE stats (type/ave/delta/count) on step 800
     1   1.00000   5.19996e-07     3000
     1   109.470   5.35964e-05     1000
SHAKE stats (type/ave/delta/count) on step 900
     1   1.00000   4.79699e-07     3000
     1   109.470   4.72354e-05     1000
SHAKE stats (type/ave/delta/count) on step 1000
     1   1.00000   5.51981e-07     3000
     1   109.470   4.90734e-05     1000
    1000    305.66321    -12643.91            0   -10807.996   -551.41482 
SHAKE stats (type/ave/delta/count) on step 1100
     1   1.00000   5.14822e-07     3000
     1   109.470   5.47015e-05     1000
SHAKE stats (type/ave/delta/count) on step 1200
     1   1.00000   4.06499e-07     3000
     1   109.470   5.70347e-05     1000
SHAKE stats (type/ave/delta/count) on step 1300
     1   1.00000   4.37173e-07     3000
     1   109.470   4.96987e-05     1000
SHAKE stats (type/ave/delta/count) on step 1400
     1   1.00000   5.02893e-07     3000
     1   109.470   5.07772e-05     1000
SHAKE stats (type/ave/delta/count) on step 1500
     1   1.00000   5.11896e-07     3000
     1   109.470   5.27382e-05     1000
    1500    297.32728   -12599.748            0   -10813.901    114.12534 
SHAKE stats (type/ave/delta/count) on step 1600
     1   1.00000   4.22245e-07     3000
     1   109.470   5.28120e-05     1000
SHAKE stats (type/ave/delta/count) on step 1700
     1   1.00000   4.03649e-07     3000
     1   109.470   4.59622e-05     1000
SHAKE stats (type/ave/delta/count) on step 1800
     1   1.00000   4.66756e-07     3000
     1   109.470   5.53752e-05     1000
SHAKE stats (type/ave/delta/count) on step 1900
     1   1.00000   4.87330e-07     3000
     1   109.470   5.27559e-05     1000
SHAKE stats (type/ave/delta/count) on step 2000
     1   1.00000   5.02082e-07     3000
     1   109.470   5.34620e-05     1000
    2000    299.79359   -12602.341            0   -10801.681   -222.61505 
SHAKE stats (type/ave/delta/count) on step 2100
     1   1.00000   4.91445e-07     3000
     1   109.470   5.46858e-05     1000
SHAKE stats (type/ave/delta/count) on step 2200
     1   1.00000   4.15331e-07     3000
     1   109.470   5.40732e-05     1000
SHAKE stats (type/ave/delta/count) on step 2300
     1   1.00000   5.72611e-07     3000
     1   109.470   7.32928e-05     1000
SHAKE stats (type/ave/delta/count) on step 2400
     1   1.00000   4.97118e-07     3000
     1   109.470   5.24548e-05     1000
SHAKE stats (type/ave/delta/count) on step 2500
     1   1.00000   4.57647e-07     3000
     1   109.470   5.49179e-05     1000
    2500    298.72139   -12575.989            0   -10781.769    49.228705 
SHAKE stats (type/ave/delta/count) on step 2600
     1   1.00000   5.28238e-07     3000
     1   109.470   5.07897e-05     1000
SHAKE stats (type/ave/delta/count) on step 2700
     1   1.00000   4.17930e-07     3000
     1   109.470   5.06566e-05     1000
SHAKE stats (type/ave/delta/count) on step 2800
     1   1.00000   6.11589e-07     3000
     1   109.470   4.76515e-05     1000
SHAKE stats (type/ave/delta/count) on step 2900
     1   1.00000   5.27980e-07     3000
     1   109.470   5.00800e-05     1000
SHAKE stats (type/ave/delta/count) on step 3000
     1   1.00000   5.13519e-07     3000
     1   109.470   7.76423e-05     1000
    3000    302.79659   -12556.727            0    -10738.03    310.52477 
SHAKE stats (type/ave/delta/count) on step 3100
     1   1.00000   4.50742e-07     3000
     1   109.470   5.33251e-05     1000
SHAKE stats (type/ave/delta/count) on step 3200
     1   1.00000   5.27794e-07     3000
     1   109.470   6.83118e-05     1000
SHAKE stats (type/ave/delta/count) on step 3300
     1   1.00000   6.34249e-07     3000
     1   109.470   7.10843e-05     1000
SHAKE stats (type/ave/delta/count) on step 3400
     1   1.00000   6.28048e-07     3000
     1   109.470   7.07251e-05     1000
SHAKE stats (type/ave/delta/count) on step 3500
     1   1.00000   4.72084e-07     3000
     1   109.470   4.57171e-05     1000
    3500    310.36992   -12585.197            0   -10721.012   -165.73081 
SHAKE stats (type/ave/delta/count) on step 3600
     1   1.00000   4.95595e-07     3000
     1   109.470   6.11057e-05     1000
SHAKE stats (type/ave/delta/count) on step 3700
     1   1.00000   4.88413e-07     3000
     1   109.470   5.05036e-05     1000
SHAKE stats (type/ave/delta/count) on step 3800
     1   1.00000   5.29489e-07     3000
     1   109.470   4.44342e-05     1000
SHAKE stats (type/ave/delta/count) on step 3900
     1   1.00000   4.16825e-07     3000
     1   109.470   5.38958e-05     1000
SHAKE stats (type/ave/delta/count) on step 4000
     1   1.00000   5.13128e-07     3000
     1   109.470   5.09058e-05     1000
    4000      298.499   -12542.802            0   -10749.918    149.82547 
SHAKE stats (type/ave/delta/count) on step 4100
     1   1.00000   4.54393e-07     3000
     1   109.470   4.79300e-05     1000
SHAKE stats (type/ave/delta/count) on step 4200
     1   1.00000   4.59080e-07     3000
     1   109.470   5.42911e-05     1000
SHAKE stats (type/ave/delta/count) on step 4300
     1   1.00000   4.95684e-07     3000
     1   109.470   4.42677e-05     1000
SHAKE stats (type/ave/delta/count) on step 4400
     1   1.00000   6.33734e-07     3000
     1   109.470   6.02603e-05     1000
SHAKE stats (type/ave/delta/count) on step 4500
     1   1.00000   4.20197e-07     3000
     1   109.470   5.63018e-05     1000
    4500    296.65101   -12582.253            0   -10800.469   -439.98685 
SHAKE stats (type/ave/delta/count) on step 4600
     1   1.00000   5.31371e-07     3000
     1   109.470   4.90049e-05     1000
SHAKE stats (type/ave/delta/count) on step 4700
     1   1.00000   4.58213e-07     3000
     1   109.470   6.19732e-05     1000
SHAKE stats (type/ave/delta/count) on step 4800
     1   1.00000   5.00825e-07     3000
     1   109.470   4.61289e-05     1000
SHAKE stats (type/ave/delta/count) on step 4900
     1   1.00000   4.90814e-07     3000
     1   109.470   5.65137e-05     1000
SHAKE stats (type/ave/delta/count) on step 5000
     1   1.00000   4.10143e-07     3000
     1   109.470   4.59967e-05     1000
    5000    296.76826   -12583.442            0   -10800.954    -620.4927 
SHAKE stats (type/ave/delta/count) on step 5100
     1   1.00000   4.73138e-07     3000
     1   109.470   4.54705e-05     1000
SHAKE stats (type/ave/delta/count) on step 5200
     1   1.00000   4.16858e-07     3000
     1   109.470   5.02707e-05     1000
SHAKE stats (type/ave/delta/count) on step 5300
     1   1.00000   5.03681e-07     3000
     1   109.470   5.64649e-05     1000
SHAKE stats (type/ave/delta/count) on step 5400
     1   1.00000   4.77178e-07     3000
     1   109.470   4.95099e-05     1000
SHAKE stats (type/ave/delta/count) on step 5500
     1   1.00000   4.26333e-07     3000
     1   109.470   5.16831e-05     1000
    5500    298.12185       -12555            0   -10764.381    169.31585 
SHAKE stats (type/ave/delta/count) on step 5600
     1   1.00000   5.09530e-07     3000
     1   109.470   5.57411e-05     1000
SHAKE stats (type/ave/delta/count) on step 5700
     1   1.00000   5.06832e-07     3000
     1   109.470   4.62388e-05     1000
SHAKE stats (type/ave/delta/count) on step 5800
     1   1.00000   3.94204e-07     3000
     1   109.470   5.32329e-05     1000
SHAKE stats (type/ave/delta/count) on step 5900
     1   1.00000   3.93897e-07     3000
     1   109.470   5.44710e-05     1000
SHAKE stats (type/ave/delta/count) on step 6000
     1   1.00000   5.30353e-07     3000
     1   109.470   5.25674e-05     1000
    6000    310.24441   -12604.685            0   -10741.254    270.50182 
SHAKE stats (type/ave/delta/count) on step 6100
     1   1.00000   4.28960e-07     3000
     1   109.470   4.24977e-05     1000
SHAKE stats (type/ave/delta/count) on step 6200
     1   1.00000   4.95354e-07     3000
     1   109.470   5.31024e-05     1000
SHAKE stats (type/ave/delta/count) on step 6300
     1   1.00000   4.14597e-07     3000
     1   109.470   5.06826e-05     1000
SHAKE stats (type/ave/delta/count) on step 6400
     1   1.00000   4.99157e-07     3000
     1   109.470   5.51070e-05     1000
SHAKE stats (type/ave/delta/count) on step 6500
     1   1.00000   4.55041e-07     3000
     1   109.470   5.85156e-05     1000
    6500    306.17611   -12596.198            0   -10757.202    360.33652 
SHAKE stats (type/ave/delta/count) on step 6600
     1   1.00000   5.59074e-07     3000
     1   109.470   6.25009e-05     1000
SHAKE stats (type/ave/delta/count) on step 6700
     1   1.00000   5.63325e-07     3000
     1   109.470   5.23935e-05     1000
SHAKE stats (type/ave/delta/count) on step 6800
     1   1.00000   4.77249e-07     3000
     1   109.470   4.90421e-05     1000
SHAKE stats (type/ave/delta/count) on step 6900
     1   1.00000   5.11001e-07     3000
     1   109.470   5.57465e-05     1000
SHAKE stats (type/ave/delta/count) on step 7000
     1   1.00000   5.18901e-07     3000
     1   109.470   7.46596e-05     1000
    7000    301.58672   -12623.814            0   -10812.384    413.09663 
SHAKE stats (type/ave/delta/count) on step 7100
     1   1.00000   4.64641e-07     3000
     1   109.470   5.22236e-05     1000
SHAKE stats (type/ave/delta/count) on step 7200
     1   1.00000   5.16737e-07     3000
     1   109.470   5.55913e-05     1000
SHAKE stats (type/ave/delta/count) on step 7300
     1   1.00000   5.54904e-07     3000
     1   109.470   6.24658e-05     1000
SHAKE stats (type/ave/delta/count) on step 7400
     1   1.00000   4.81649e-07     3000
     1   109.470   5.28187e-05     1000
SHAKE stats (type/ave/delta/count) on step 7500
     1   1.00000   6.04877e-07     3000
     1   109.470   5.23207e-05     1000
    7500    293.36249   -12643.418            0   -10881.386    311.81093 
SHAKE stats (type/ave/delta/count) on step 7600
     1   1.00000   5.51327e-07     3000
     1   109.470   6.42659e-05     1000
SHAKE stats (type/ave/delta/count) on step 7700
     1   1.00000   3.79621e-07     3000
     1   109.470   5.53103e-05     1000
SHAKE stats (type/ave/delta/count) on step 7800
     1   1.00000   5.15899e-07     3000
     1   109.470   5.22060e-05     1000
SHAKE stats (type/ave/delta/count) on step 7900
     1   1.00000   4.76477e-07     3000
     1   109.470   4.79420e-05     1000
SHAKE stats (type/ave/delta/count) on step 8000
     1   1.00000   4.70272e-07     3000
     1   109.470   5.36482e-05     1000
    8000    293.45038   -12641.415            0   -10878.854    183.42131 
SHAKE stats (type/ave/delta/count) on step 8100
     1   1.00000   5.18661e-07     3000
     1   109.470   5.92803e-05     1000
SHAKE stats (type/ave/delta/count) on step 8200
     1   1.00000   5.22433e-07     3000
     1   109.470   6.82956e-05     1000
SHAKE stats (type/ave/delta/count) on step 8300
     1   1.00000   5.68649e-07     3000
     1   109.470   5.87221e-05     1000
SHAKE stats (type/ave/delta/count) on step 8400
     1   1.00000   5.29029e-07     3000
     1   109.470   6.97382e-05     1000
SHAKE stats (type/ave/delta/count) on step 8500
     1   1.00000   5.61338e-07     3000
     1   109.470   6.48256e-05     1000
    8500    304.15195   -12665.436            0   -10838.599   -72.969033 
SHAKE stats (type/ave/delta/count) on step 8600
     1   1.00000   4.60076e-07     3000
     1   109.470   6.00599e-05     1000
SHAKE stats (type/ave/delta/count) on step 8700
     1   1.00000   5.16052e-07     3000
     1   109.470   5.00770e-05     1000
SHAKE stats (type/ave/delta/count) on step 8800
     1   1.00000   5.20157e-07     3000
     1   109.470   6.54651e-05     1000
SHAKE stats (type/ave/delta/count) on step 8900
     1   1.00000   6.44700e-07     3000
     1   109.470   5.19425e-05     1000
SHAKE stats (type/ave/delta/count) on step 9000
     1   1.00000   5.02498e-07     3000
     1   109.470   4.92398e-05     1000
    9000    298.98052   -12599.024            0   -10803.247    434.00706 
SHAKE stats (type/ave/delta/count) on step 9100
     1   1.00000   5.74780e-07     3000
     1   109.470   5.62903e-05     1000
SHAKE stats (type/ave/delta/count) on step 9200
     1   1.00000   6.28742e-07     3000
     1   109.470   6.88510e-05     1000
SHAKE stats (type/ave/delta/count) on step 9300
     1   1.00000   3.95106e-07     3000
     1   109.470   6.21251e-05     1000
SHAKE stats (type/ave/delta/count) on step 9400
     1   1.00000   4.44537e-07     3000
     1   109.470   5.02819e-05     1000
SHAKE stats (type/ave/delta/count) on step 9500
     1   1.00000   5.29100e-07     3000
     1   109.470   7.03915e-05     1000
    9500    302.08806   -12602.349            0   -10787.908    40.757627 
SHAKE stats (type/ave/delta/count) on step 9600
     1   1.00000   4.88479e-07     3000
     1   109.470   6.71913e-05     1000
SHAKE stats (type/ave/delta/count) on step 9700
     1   1.00000   5.21756e-07     3000
     1   109.470   6.03065e-05     1000
SHAKE stats (type/ave/delta/count) on step 9800
     1   1.00000   4.65223e-07     3000
     1   109.470   5.93910e-05     1000
SHAKE stats (type/ave/delta/count) on step 9900
     1   1.00000   4.79694e-07     3000
     1   109.470   5.39096e-05     1000
SHAKE stats (type/ave/delta/count) on step 10000
     1   1.00000   4.10304e-07     3000
     1   109.470   4.69016e-05     1000
   10000    294.67156    -12562.85            0   -10792.954    69.654166 
Loop time of 120.08 on 1 procs for 10000 steps with 3016 atoms

Performance: 7.195 ns/day, 3.336 hours/ns, 83.278 timesteps/s
99.7% CPU use with 1 MPI tasks x no OpenMP threads

MPI task timing breakdown:
Section |  min time  |  avg time  |  max time  |%varavg| %total
---------------------------------------------------------------
Pair    | 101.61     | 101.61     | 101.61     |   0.0 | 84.62
Bond    | 0.000456   | 0.000456   | 0.000456   |   0.0 |  0.00
Kspace  | 7.8607     | 7.8607     | 7.8607     |   0.0 |  6.55
Neigh   | 8.4363     | 8.4363     | 8.4363     |   0.0 |  7.03
Comm    | 0.42501    | 0.42501    | 0.42501    |   0.0 |  0.35
Output  | 0.052517   | 0.052517   | 0.052517   |   0.0 |  0.04
Modify  | 1.6492     | 1.6492     | 1.6492     |   0.0 |  1.37
Other   |            | 0.04921    |            |       |  0.04

Nlocal:        3016.00 ave        3016 max        3016 min
Histogram: 1 0 0 0 0 0 0 0 0 0
Nghost:        13693.0 ave       13693 max       13693 min
Histogram: 1 0 0 0 0 0 0 0 0 0
Neighs:    1.08675e+06 ave 1.08675e+06 max 1.08675e+06 min
Histogram: 1 0 0 0 0 0 0 0 0 0

Total # of neighbors = 1086749
Ave neighs/atom = 360.32792
Ave special neighs/atom = 1.9893899
Neighbor list builds = 460
Dangerous builds = 0

# Now that the system's temperature has become more equilibrated,
# we can increase the timestep:

timestep     2.0
run          50000
PPPM initialization ...
  using 12-bit tables for long-range coulomb (../kspace.cpp:340)
  G vector (1/distance) = 0.26320807
  grid = 16 16 16
  stencil order = 5
  estimated absolute RMS force accuracy = 0.033315353
  estimated relative force accuracy = 0.00010032819
  using double precision FFTW3
  3d grid and FFT values/proc = 12167 4096
SHAKE stats (type/ave/delta/count) on step 10000
     1   1.00000   4.10304e-07     3000
     1   109.470   4.69016e-05     1000
Per MPI rank memory allocation (min/avg/max) = 23.24 | 23.24 | 23.24 Mbytes
Step Temp E_pair E_mol TotEng Press 
   10000    294.67156    -12562.85            0   -10792.954    64.306765 
SHAKE stats (type/ave/delta/count) on step 10100
     1   1.00000   2.26825e-06     3000
     1   109.470   0.000313458     1000
SHAKE stats (type/ave/delta/count) on step 10200
     1   1.00000   1.81695e-06     3000
     1   109.470   0.000223646     1000
SHAKE stats (type/ave/delta/count) on step 10300
     1   1.00000   1.87462e-06     3000
     1   109.470   0.000126833     1000
SHAKE stats (type/ave/delta/count) on step 10400
     1   1.00000   1.70886e-06     3000
     1   109.470   0.000180323     1000
SHAKE stats (type/ave/delta/count) on step 10500
     1   1.00000   1.64515e-06     3000
     1   109.470   0.000131760     1000
   10500     294.4956   -12558.669            0    -10789.83    230.22399 
SHAKE stats (type/ave/delta/count) on step 10600
     1   1.00000   1.60354e-06     3000
     1   109.470   0.000163285     1000
SHAKE stats (type/ave/delta/count) on step 10700
     1   1.00000   1.68332e-06     3000
     1   109.470   0.000234545     1000
SHAKE stats (type/ave/delta/count) on step 10800
     1   1.00000   1.28140e-06     3000
     1   109.470   0.000138203     1000
SHAKE stats (type/ave/delta/count) on step 10900
     1   1.00000   2.16476e-06     3000
     1   109.470   0.000261323     1000
SHAKE stats (type/ave/delta/count) on step 11000
     1   1.00000   1.69121e-06     3000
     1   109.470   0.000197312     1000
   11000    292.32157    -12499.04            0   -10743.259    544.42053 
SHAKE stats (type/ave/delta/count) on step 11100
     1   1.00000   1.31561e-06     3000
     1   109.470   0.000184910     1000
SHAKE stats (type/ave/delta/count) on step 11200
     1   1.00000   1.65340e-06     3000
     1   109.470   0.000158860     1000
SHAKE stats (type/ave/delta/count) on step 11300
     1   1.00000   1.32835e-06     3000
     1   109.470   0.000186326     1000
SHAKE stats (type/ave/delta/count) on step 11400
     1   1.00000   1.38898e-06     3000
     1   109.470   0.000139788     1000
SHAKE stats (type/ave/delta/count) on step 11500
     1   1.00000   1.80081e-06     3000
     1   109.470   0.000150455     1000
   11500    299.87644   -12595.425            0   -10794.267    1013.3228 
SHAKE stats (type/ave/delta/count) on step 11600
     1   1.00000   1.35435e-06     3000
     1   109.470   0.000198512     1000
SHAKE stats (type/ave/delta/count) on step 11700
     1   1.00000   1.49147e-06     3000
     1   109.470   0.000130936     1000
SHAKE stats (type/ave/delta/count) on step 11800
     1   1.00000   1.50229e-06     3000
     1   109.470   0.000153903     1000
SHAKE stats (type/ave/delta/count) on step 11900
     1   1.00000   1.58608e-06     3000
     1   109.470   0.000214957     1000
SHAKE stats (type/ave/delta/count) on step 12000
     1   1.00000   1.39710e-06     3000
     1   109.470   0.000185121     1000
   12000    303.97285   -12555.738            0   -10729.976   -346.27943 
SHAKE stats (type/ave/delta/count) on step 12100
     1   1.00000   2.62324e-06     3000
     1   109.470   0.000266717     1000
SHAKE stats (type/ave/delta/count) on step 12200
     1   1.00000   1.48212e-06     3000
     1   109.470   0.000154414     1000
SHAKE stats (type/ave/delta/count) on step 12300
     1   1.00000   1.19841e-06     3000
     1   109.470   0.000156743     1000
SHAKE stats (type/ave/delta/count) on step 12400
     1   1.00000   1.24584e-06     3000
     1   109.470   0.000152647     1000
SHAKE stats (type/ave/delta/count) on step 12500
     1   1.00000   2.08747e-06     3000
     1   109.470   0.000147094     1000
   12500    299.53861   -12547.791            0   -10748.663   -1.2154916 
SHAKE stats (type/ave/delta/count) on step 12600
     1   1.00000   2.04270e-06     3000
     1   109.470   0.000169797     1000
SHAKE stats (type/ave/delta/count) on step 12700
     1   1.00000   1.49764e-06     3000
     1   109.470   0.000154514     1000
SHAKE stats (type/ave/delta/count) on step 12800
     1   1.00000   1.26175e-06     3000
     1   109.470   0.000148738     1000
SHAKE stats (type/ave/delta/count) on step 12900
     1   1.00000   1.64178e-06     3000
     1   109.470   0.000192398     1000
SHAKE stats (type/ave/delta/count) on step 13000
     1   1.00000   2.07423e-06     3000
     1   109.470   0.000212620     1000
   13000    292.10366   -12578.282            0   -10823.811    886.76951 
SHAKE stats (type/ave/delta/count) on step 13100
     1   1.00000   1.37612e-06     3000
     1   109.470   0.000133635     1000
SHAKE stats (type/ave/delta/count) on step 13200
     1   1.00000   1.54441e-06     3000
     1   109.470   0.000135281     1000
SHAKE stats (type/ave/delta/count) on step 13300
     1   1.00000   1.27423e-06     3000
     1   109.470   0.000157180     1000
SHAKE stats (type/ave/delta/count) on step 13400
     1   1.00000   1.36207e-06     3000
     1   109.470   0.000128029     1000
SHAKE stats (type/ave/delta/count) on step 13500
     1   1.00000   1.52711e-06     3000
     1   109.470   0.000206607     1000
   13500    297.51444   -12601.635            0   -10814.665    431.38984 
SHAKE stats (type/ave/delta/count) on step 13600
     1   1.00000   1.58846e-06     3000
     1   109.470   0.000179177     1000
SHAKE stats (type/ave/delta/count) on step 13700
     1   1.00000   1.95058e-06     3000
     1   109.470   0.000278393     1000
SHAKE stats (type/ave/delta/count) on step 13800
     1   1.00000   1.30985e-06     3000
     1   109.470   0.000140609     1000
SHAKE stats (type/ave/delta/count) on step 13900
     1   1.00000   1.17910e-06     3000
     1   109.470   0.000165018     1000
SHAKE stats (type/ave/delta/count) on step 14000
     1   1.00000   1.28465e-06     3000
     1   109.470   0.000134910     1000
   14000     304.5395   -12544.009            0   -10714.843    229.10064 
SHAKE stats (type/ave/delta/count) on step 14100
     1   1.00000   2.27059e-06     3000
     1   109.470   0.000211653     1000
SHAKE stats (type/ave/delta/count) on step 14200
     1   1.00000   1.42064e-06     3000
     1   109.470   0.000205311     1000
SHAKE stats (type/ave/delta/count) on step 14300
     1   1.00000   1.58996e-06     3000
     1   109.470   0.000195141     1000
SHAKE stats (type/ave/delta/count) on step 14400
     1   1.00000   1.67563e-06     3000
     1   109.470   0.000207866     1000
SHAKE stats (type/ave/delta/count) on step 14500
     1   1.00000   1.54208e-06     3000
     1   109.470   0.000152852     1000
   14500    298.12077   -12537.249            0   -10746.637    50.966751 
SHAKE stats (type/ave/delta/count) on step 14600
     1   1.00000   1.90789e-06     3000
     1   109.470   0.000185628     1000
SHAKE stats (type/ave/delta/count) on step 14700
     1   1.00000   1.89239e-06     3000
     1   109.470   0.000246809     1000
SHAKE stats (type/ave/delta/count) on step 14800
     1   1.00000   1.63209e-06     3000
     1   109.470   0.000230509     1000
SHAKE stats (type/ave/delta/count) on step 14900
     1   1.00000   1.18136e-06     3000
     1   109.470   0.000124061     1000
SHAKE stats (type/ave/delta/count) on step 15000
     1   1.00000   1.57004e-06     3000
     1   109.470   0.000180525     1000
   15000    299.71472   -12586.062            0   -10785.876   -382.32494 
SHAKE stats (type/ave/delta/count) on step 15100
     1   1.00000   1.04993e-06     3000
     1   109.470   0.000117277     1000
SHAKE stats (type/ave/delta/count) on step 15200
     1   1.00000   1.62138e-06     3000
     1   109.470   0.000196798     1000
SHAKE stats (type/ave/delta/count) on step 15300
     1   1.00000   1.42065e-06     3000
     1   109.470   0.000159334     1000
SHAKE stats (type/ave/delta/count) on step 15400
     1   1.00000   1.41157e-06     3000
     1   109.470   0.000127229     1000
SHAKE stats (type/ave/delta/count) on step 15500
     1   1.00000   1.38463e-06     3000
     1   109.470   0.000177454     1000
   15500    313.52282   -12572.714            0   -10689.592    124.32357 
SHAKE stats (type/ave/delta/count) on step 15600
     1   1.00000   1.55143e-06     3000
     1   109.470   0.000154005     1000
SHAKE stats (type/ave/delta/count) on step 15700
     1   1.00000   1.49086e-06     3000
     1   109.470   0.000203973     1000
SHAKE stats (type/ave/delta/count) on step 15800
     1   1.00000   1.27248e-06     3000
     1   109.470   0.000121437     1000
SHAKE stats (type/ave/delta/count) on step 15900
     1   1.00000   1.87351e-06     3000
     1   109.470   0.000163041     1000
SHAKE stats (type/ave/delta/count) on step 16000
     1   1.00000   1.44654e-06     3000
     1   109.470   0.000122604     1000
   16000    303.46601   -12596.899            0   -10774.182   -201.41128 
SHAKE stats (type/ave/delta/count) on step 16100
     1   1.00000   1.68152e-06     3000
     1   109.470   0.000195271     1000
SHAKE stats (type/ave/delta/count) on step 16200
     1   1.00000   2.01234e-06     3000
     1   109.470   0.000180069     1000
SHAKE stats (type/ave/delta/count) on step 16300
     1   1.00000   2.02795e-06     3000
     1   109.470   0.000230035     1000
SHAKE stats (type/ave/delta/count) on step 16400
     1   1.00000   1.52962e-06     3000
     1   109.470   0.000183209     1000
SHAKE stats (type/ave/delta/count) on step 16500
     1   1.00000   1.19488e-06     3000
     1   109.470   0.000112556     1000
   16500    291.37414   -12665.697            0   -10915.607    -136.1955 
SHAKE stats (type/ave/delta/count) on step 16600
     1   1.00000   1.66526e-06     3000
     1   109.470   0.000153138     1000
SHAKE stats (type/ave/delta/count) on step 16700
     1   1.00000   1.20247e-06     3000
     1   109.470   0.000147333     1000
SHAKE stats (type/ave/delta/count) on step 16800
     1   1.00000   2.11534e-06     3000
     1   109.470   0.000250660     1000
SHAKE stats (type/ave/delta/count) on step 16900
     1   1.00000   2.11266e-06     3000
     1   109.470   0.000235337     1000
SHAKE stats (type/ave/delta/count) on step 17000
     1   1.00000   1.93853e-06     3000
     1   109.470   0.000187216     1000
   17000    300.64195   -12602.726            0    -10796.97   -146.69554 
SHAKE stats (type/ave/delta/count) on step 17100
     1   1.00000   1.51750e-06     3000
     1   109.470   0.000198482     1000
SHAKE stats (type/ave/delta/count) on step 17200
     1   1.00000   1.91808e-06     3000
     1   109.470   0.000179914     1000
SHAKE stats (type/ave/delta/count) on step 17300
     1   1.00000   1.23720e-06     3000
     1   109.470   0.000186539     1000
SHAKE stats (type/ave/delta/count) on step 17400
     1   1.00000   1.29206e-06     3000
     1   109.470   0.000147861     1000
SHAKE stats (type/ave/delta/count) on step 17500
     1   1.00000   1.52862e-06     3000
     1   109.470   0.000163505     1000
   17500    309.84205   -12534.794            0    -10673.78    402.85442 
SHAKE stats (type/ave/delta/count) on step 17600
     1   1.00000   3.03587e-06     3000
     1   109.470   0.000278977     1000
SHAKE stats (type/ave/delta/count) on step 17700
     1   1.00000   2.76103e-06     3000
     1   109.470   0.000210210     1000
SHAKE stats (type/ave/delta/count) on step 17800
     1   1.00000   2.33279e-06     3000
     1   109.470   0.000243837     1000
SHAKE stats (type/ave/delta/count) on step 17900
     1   1.00000   1.40720e-06     3000
     1   109.470   0.000190731     1000
SHAKE stats (type/ave/delta/count) on step 18000
     1   1.00000   1.50916e-06     3000
     1   109.470   0.000183506     1000
   18000     305.0807    -12633.94            0   -10801.524    36.826324 
SHAKE stats (type/ave/delta/count) on step 18100
     1   1.00000   1.97244e-06     3000
     1   109.470   0.000193265     1000
SHAKE stats (type/ave/delta/count) on step 18200
     1   1.00000   1.77295e-06     3000
     1   109.470   0.000144481     1000
SHAKE stats (type/ave/delta/count) on step 18300
     1   1.00000   1.20513e-06     3000
     1   109.470   0.000120701     1000
SHAKE stats (type/ave/delta/count) on step 18400
     1   1.00000   1.23807e-06     3000
     1   109.470   0.000156876     1000
SHAKE stats (type/ave/delta/count) on step 18500
     1   1.00000   1.19430e-06     3000
     1   109.470   0.000156242     1000
   18500    297.84444   -12675.182            0    -10886.23    5.8661178 
SHAKE stats (type/ave/delta/count) on step 18600
     1   1.00000   1.86596e-06     3000
     1   109.470   0.000229790     1000
SHAKE stats (type/ave/delta/count) on step 18700
     1   1.00000   1.39914e-06     3000
     1   109.470   0.000153125     1000
SHAKE stats (type/ave/delta/count) on step 18800
     1   1.00000   1.58858e-06     3000
     1   109.470   0.000176196     1000
SHAKE stats (type/ave/delta/count) on step 18900
     1   1.00000   1.58238e-06     3000
     1   109.470   0.000177785     1000
SHAKE stats (type/ave/delta/count) on step 19000
     1   1.00000   1.65746e-06     3000
     1   109.470   0.000183495     1000
   19000    306.58031   -12594.383            0   -10752.959    909.47826 
SHAKE stats (type/ave/delta/count) on step 19100
     1   1.00000   1.51044e-06     3000
     1   109.470   0.000202052     1000
SHAKE stats (type/ave/delta/count) on step 19200
     1   1.00000   1.18035e-06     3000
     1   109.470   0.000138045     1000
SHAKE stats (type/ave/delta/count) on step 19300
     1   1.00000   1.30233e-06     3000
     1   109.470   0.000207529     1000
SHAKE stats (type/ave/delta/count) on step 19400
     1   1.00000   1.84338e-06     3000
     1   109.470   0.000182380     1000
SHAKE stats (type/ave/delta/count) on step 19500
     1   1.00000   1.35579e-06     3000
     1   109.470   0.000155529     1000
   19500     300.8532   -12526.438            0   -10719.414    656.33203 
SHAKE stats (type/ave/delta/count) on step 19600
     1   1.00000   2.58629e-06     3000
     1   109.470   0.000282985     1000
SHAKE stats (type/ave/delta/count) on step 19700
     1   1.00000   1.96640e-06     3000
     1   109.470   0.000164576     1000
SHAKE stats (type/ave/delta/count) on step 19800
     1   1.00000   1.83214e-06     3000
     1   109.470   0.000179684     1000
SHAKE stats (type/ave/delta/count) on step 19900
     1   1.00000   2.18216e-06     3000
     1   109.470   0.000185422     1000
SHAKE stats (type/ave/delta/count) on step 20000
     1   1.00000   1.69671e-06     3000
     1   109.470   0.000188742     1000
   20000    298.51005     -12659.6            0   -10866.649   -190.96225 
SHAKE stats (type/ave/delta/count) on step 20100
     1   1.00000   1.50626e-06     3000
     1   109.470   0.000166770     1000
SHAKE stats (type/ave/delta/count) on step 20200
     1   1.00000   2.06918e-06     3000
     1   109.470   0.000208139     1000
SHAKE stats (type/ave/delta/count) on step 20300
     1   1.00000   1.17651e-06     3000
     1   109.470   0.000166021     1000
SHAKE stats (type/ave/delta/count) on step 20400
     1   1.00000   1.42804e-06     3000
     1   109.470   0.000108546     1000
SHAKE stats (type/ave/delta/count) on step 20500
     1   1.00000   1.43540e-06     3000
     1   109.470   0.000168874     1000
   20500    293.12398   -12689.048            0   -10928.448    540.95688 
SHAKE stats (type/ave/delta/count) on step 20600
     1   1.00000   1.11921e-06     3000
     1   109.470   0.000137514     1000
SHAKE stats (type/ave/delta/count) on step 20700
     1   1.00000   1.52442e-06     3000
     1   109.470   0.000189763     1000
SHAKE stats (type/ave/delta/count) on step 20800
     1   1.00000   2.60084e-06     3000
     1   109.470   0.000258354     1000
SHAKE stats (type/ave/delta/count) on step 20900
     1   1.00000   2.12738e-06     3000
     1   109.470   0.000214455     1000
SHAKE stats (type/ave/delta/count) on step 21000
     1   1.00000   1.22140e-06     3000
     1   109.470   0.000174997     1000
   21000    305.00392   -12637.039            0   -10805.084   -550.25646 
SHAKE stats (type/ave/delta/count) on step 21100
     1   1.00000   1.47012e-06     3000
     1   109.470   0.000206986     1000
SHAKE stats (type/ave/delta/count) on step 21200
     1   1.00000   2.50877e-06     3000
     1   109.470   0.000234499     1000
SHAKE stats (type/ave/delta/count) on step 21300
     1   1.00000   1.41165e-06     3000
     1   109.470   0.000156211     1000
SHAKE stats (type/ave/delta/count) on step 21400
     1   1.00000   2.18080e-06     3000
     1   109.470   0.000293312     1000
SHAKE stats (type/ave/delta/count) on step 21500
     1   1.00000   1.50985e-06     3000
     1   109.470   0.000116799     1000
   21500    308.88147   -12559.688            0   -10704.443    344.40105 
SHAKE stats (type/ave/delta/count) on step 21600
     1   1.00000   2.33993e-06     3000
     1   109.470   0.000336140     1000
SHAKE stats (type/ave/delta/count) on step 21700
     1   1.00000   1.49691e-06     3000
     1   109.470   0.000170648     1000
SHAKE stats (type/ave/delta/count) on step 21800
     1   1.00000   1.47688e-06     3000
     1   109.470   0.000147192     1000
SHAKE stats (type/ave/delta/count) on step 21900
     1   1.00000   1.89816e-06     3000
     1   109.470   0.000228477     1000
SHAKE stats (type/ave/delta/count) on step 22000
     1   1.00000   1.51447e-06     3000
     1   109.470   0.000153497     1000
   22000    293.08356   -12577.175            0   -10816.818    680.08269 
SHAKE stats (type/ave/delta/count) on step 22100
     1   1.00000   1.67461e-06     3000
     1   109.470   0.000135204     1000
SHAKE stats (type/ave/delta/count) on step 22200
     1   1.00000   1.43190e-06     3000
     1   109.470   0.000163203     1000
SHAKE stats (type/ave/delta/count) on step 22300
     1   1.00000   1.49199e-06     3000
     1   109.470   0.000142938     1000
SHAKE stats (type/ave/delta/count) on step 22400
     1   1.00000   1.61373e-06     3000
     1   109.470   0.000188588     1000
SHAKE stats (type/ave/delta/count) on step 22500
     1   1.00000   1.50764e-06     3000
     1   109.470   0.000209536     1000
   22500    301.28348   -12679.084            0   -10869.475   -208.06469 
SHAKE stats (type/ave/delta/count) on step 22600
     1   1.00000   1.79261e-06     3000
     1   109.470   0.000158294     1000
SHAKE stats (type/ave/delta/count) on step 22700
     1   1.00000   1.09449e-06     3000
     1   109.470   0.000125905     1000
SHAKE stats (type/ave/delta/count) on step 22800
     1   1.00000   1.45549e-06     3000
     1   109.470   0.000202829     1000
SHAKE stats (type/ave/delta/count) on step 22900
     1   1.00000   1.29445e-06     3000
     1   109.470   0.000156114     1000
SHAKE stats (type/ave/delta/count) on step 23000
     1   1.00000   1.30602e-06     3000
     1   109.470   0.000148469     1000
   23000    303.42274   -12638.763            0   -10816.305     501.6011 
SHAKE stats (type/ave/delta/count) on step 23100
     1   1.00000   1.67632e-06     3000
     1   109.470   0.000132985     1000
SHAKE stats (type/ave/delta/count) on step 23200
     1   1.00000   1.15553e-06     3000
     1   109.470   0.000172485     1000
SHAKE stats (type/ave/delta/count) on step 23300
     1   1.00000   1.49593e-06     3000
     1   109.470   0.000157150     1000
SHAKE stats (type/ave/delta/count) on step 23400
     1   1.00000   1.67666e-06     3000
     1   109.470   0.000217403     1000
SHAKE stats (type/ave/delta/count) on step 23500
     1   1.00000   1.66712e-06     3000
     1   109.470   0.000211329     1000
   23500    298.88488   -12627.451            0    -10832.25   -216.67746 
SHAKE stats (type/ave/delta/count) on step 23600
     1   1.00000   1.71260e-06     3000
     1   109.470   0.000163413     1000
SHAKE stats (type/ave/delta/count) on step 23700
     1   1.00000   2.64909e-06     3000
     1   109.470   0.000335250     1000
SHAKE stats (type/ave/delta/count) on step 23800
     1   1.00000   1.31461e-06     3000
     1   109.470   0.000183065     1000
SHAKE stats (type/ave/delta/count) on step 23900
     1   1.00000   1.45980e-06     3000
     1   109.470   0.000164694     1000
SHAKE stats (type/ave/delta/count) on step 24000
     1   1.00000   1.12705e-06     3000
     1   109.470   0.000125653     1000
   24000    300.54196   -12625.775            0    -10820.62    91.388385 
SHAKE stats (type/ave/delta/count) on step 24100
     1   1.00000   1.00427e-06     3000
     1   109.470   0.000102777     1000
SHAKE stats (type/ave/delta/count) on step 24200
     1   1.00000   1.22648e-06     3000
     1   109.470   0.000164477     1000
SHAKE stats (type/ave/delta/count) on step 24300
     1   1.00000   1.31009e-06     3000
     1   109.470   0.000155783     1000
SHAKE stats (type/ave/delta/count) on step 24400
     1   1.00000   1.36751e-06     3000
     1   109.470   0.000176248     1000
SHAKE stats (type/ave/delta/count) on step 24500
     1   1.00000   2.10571e-06     3000
     1   109.470   0.000253278     1000
   24500    294.81041   -12595.221            0   -10824.492   -895.27216 
SHAKE stats (type/ave/delta/count) on step 24600
     1   1.00000   1.21434e-06     3000
     1   109.470   0.000183024     1000
SHAKE stats (type/ave/delta/count) on step 24700
     1   1.00000   1.77373e-06     3000
     1   109.470   0.000269820     1000
SHAKE stats (type/ave/delta/count) on step 24800
     1   1.00000   2.13883e-06     3000
     1   109.470   0.000304207     1000
SHAKE stats (type/ave/delta/count) on step 24900
     1   1.00000   1.68460e-06     3000
     1   109.470   0.000179451     1000
SHAKE stats (type/ave/delta/count) on step 25000
     1   1.00000   1.23638e-06     3000
     1   109.470   0.000163738     1000
   25000    301.37493   -12529.788            0    -10719.63    140.33158 
SHAKE stats (type/ave/delta/count) on step 25100
     1   1.00000   1.28097e-06     3000
     1   109.470   0.000182536     1000
SHAKE stats (type/ave/delta/count) on step 25200
     1   1.00000   1.30175e-06     3000
     1   109.470   0.000137170     1000
SHAKE stats (type/ave/delta/count) on step 25300
     1   1.00000   1.52704e-06     3000
     1   109.470   0.000205459     1000
SHAKE stats (type/ave/delta/count) on step 25400
     1   1.00000   1.40678e-06     3000
     1   109.470   0.000155801     1000
SHAKE stats (type/ave/delta/count) on step 25500
     1   1.00000   1.77223e-06     3000
     1   109.470   0.000190290     1000
   25500     304.8224   -12541.967            0   -10711.102    175.11401 
SHAKE stats (type/ave/delta/count) on step 25600
     1   1.00000   2.18032e-06     3000
     1   109.470   0.000131128     1000
SHAKE stats (type/ave/delta/count) on step 25700
     1   1.00000   1.35070e-06     3000
     1   109.470   0.000153552     1000
SHAKE stats (type/ave/delta/count) on step 25800
     1   1.00000   1.34140e-06     3000
     1   109.470   0.000148960     1000
SHAKE stats (type/ave/delta/count) on step 25900
     1   1.00000   1.29584e-06     3000
     1   109.470   0.000116239     1000
SHAKE stats (type/ave/delta/count) on step 26000
     1   1.00000   1.26713e-06     3000
     1   109.470   0.000171005     1000
   26000    295.07849   -12584.319            0    -10811.98   -487.51299 
SHAKE stats (type/ave/delta/count) on step 26100
     1   1.00000   1.16610e-06     3000
     1   109.470   0.000113169     1000
SHAKE stats (type/ave/delta/count) on step 26200
     1   1.00000   1.50248e-06     3000
     1   109.470   0.000204889     1000
SHAKE stats (type/ave/delta/count) on step 26300
     1   1.00000   1.24440e-06     3000
     1   109.470   0.000128941     1000
SHAKE stats (type/ave/delta/count) on step 26400
     1   1.00000   1.99160e-06     3000
     1   109.470   0.000223070     1000
SHAKE stats (type/ave/delta/count) on step 26500
     1   1.00000   1.06941e-06     3000
     1   109.470   0.000125300     1000
   26500    303.19193    -12585.29            0   -10764.219   -201.94989 
SHAKE stats (type/ave/delta/count) on step 26600
     1   1.00000   1.10977e-06     3000
     1   109.470   0.000136949     1000
SHAKE stats (type/ave/delta/count) on step 26700
     1   1.00000   1.24316e-06     3000
     1   109.470   0.000154046     1000
SHAKE stats (type/ave/delta/count) on step 26800
     1   1.00000   1.62362e-06     3000
     1   109.470   0.000184942     1000
SHAKE stats (type/ave/delta/count) on step 26900
     1   1.00000   1.10265e-06     3000
     1   109.470   0.000139497     1000
SHAKE stats (type/ave/delta/count) on step 27000
     1   1.00000   1.41249e-06     3000
     1   109.470   0.000204656     1000
   27000    313.78536   -12605.084            0   -10720.385   -430.77219 
SHAKE stats (type/ave/delta/count) on step 27100
     1   1.00000   2.66523e-06     3000
     1   109.470   0.000190243     1000
SHAKE stats (type/ave/delta/count) on step 27200
     1   1.00000   1.43457e-06     3000
     1   109.470   0.000147264     1000
SHAKE stats (type/ave/delta/count) on step 27300
     1   1.00000   1.96719e-06     3000
     1   109.470   0.000175514     1000
SHAKE stats (type/ave/delta/count) on step 27400
     1   1.00000   1.48804e-06     3000
     1   109.470   0.000151147     1000
SHAKE stats (type/ave/delta/count) on step 27500
     1   1.00000   1.61191e-06     3000
     1   109.470   0.000178167     1000
   27500     297.8922   -12636.685            0   -10847.446   -357.28755 
SHAKE stats (type/ave/delta/count) on step 27600
     1   1.00000   1.66551e-06     3000
     1   109.470   0.000161909     1000
SHAKE stats (type/ave/delta/count) on step 27700
     1   1.00000   1.20753e-06     3000
     1   109.470   0.000187185     1000
SHAKE stats (type/ave/delta/count) on step 27800
     1   1.00000   1.31482e-06     3000
     1   109.470   0.000176843     1000
SHAKE stats (type/ave/delta/count) on step 27900
     1   1.00000   1.45593e-06     3000
     1   109.470   0.000103019     1000
SHAKE stats (type/ave/delta/count) on step 28000
     1   1.00000   2.03011e-06     3000
     1   109.470   0.000163975     1000
   28000    293.84639   -12628.513            0   -10863.574   -258.42711 
SHAKE stats (type/ave/delta/count) on step 28100
     1   1.00000   1.98266e-06     3000
     1   109.470   0.000206218     1000
SHAKE stats (type/ave/delta/count) on step 28200
     1   1.00000   1.22775e-06     3000
     1   109.470   0.000143310     1000
SHAKE stats (type/ave/delta/count) on step 28300
     1   1.00000   1.93860e-06     3000
     1   109.470   0.000190027     1000
SHAKE stats (type/ave/delta/count) on step 28400
     1   1.00000   1.21297e-06     3000
     1   109.470   0.000184528     1000
SHAKE stats (type/ave/delta/count) on step 28500
     1   1.00000   1.17390e-06     3000
     1   109.470   0.000161945     1000
   28500     297.2541   -12544.984            0   -10759.578   -100.02898 
SHAKE stats (type/ave/delta/count) on step 28600
     1   1.00000   1.40263e-06     3000
     1   109.470   0.000142544     1000
SHAKE stats (type/ave/delta/count) on step 28700
     1   1.00000   1.36434e-06     3000
     1   109.470   0.000200742     1000
SHAKE stats (type/ave/delta/count) on step 28800
     1   1.00000   1.11145e-06     3000
     1   109.470   0.000137649     1000
SHAKE stats (type/ave/delta/count) on step 28900
     1   1.00000   1.30823e-06     3000
     1   109.470   0.000131898     1000
SHAKE stats (type/ave/delta/count) on step 29000
     1   1.00000   1.53048e-06     3000
     1   109.470   0.000165636     1000
   29000    302.69384   -12564.532            0   -10746.452    87.615316 
SHAKE stats (type/ave/delta/count) on step 29100
     1   1.00000   1.60322e-06     3000
     1   109.470   0.000271593     1000
SHAKE stats (type/ave/delta/count) on step 29200
     1   1.00000   1.77307e-06     3000
     1   109.470   0.000264788     1000
SHAKE stats (type/ave/delta/count) on step 29300
     1   1.00000   1.40691e-06     3000
     1   109.470   0.000151424     1000
SHAKE stats (type/ave/delta/count) on step 29400
     1   1.00000   1.93987e-06     3000
     1   109.470   0.000141402     1000
SHAKE stats (type/ave/delta/count) on step 29500
     1   1.00000   1.91059e-06     3000
     1   109.470   0.000123381     1000
   29500    297.30097   -12608.036            0   -10822.348    239.71842 
SHAKE stats (type/ave/delta/count) on step 29600
     1   1.00000   2.72591e-06     3000
     1   109.470   0.000268884     1000
SHAKE stats (type/ave/delta/count) on step 29700
     1   1.00000   1.49523e-06     3000
     1   109.470   0.000161322     1000
SHAKE stats (type/ave/delta/count) on step 29800
     1   1.00000   1.26886e-06     3000
     1   109.470   0.000178600     1000
SHAKE stats (type/ave/delta/count) on step 29900
     1   1.00000   1.36539e-06     3000
     1   109.470   0.000184610     1000
SHAKE stats (type/ave/delta/count) on step 30000
     1   1.00000   1.49270e-06     3000
     1   109.470   0.000192623     1000
   30000    296.62535   -12657.504            0   -10875.874   -62.982899 
SHAKE stats (type/ave/delta/count) on step 30100
     1   1.00000   1.60322e-06     3000
     1   109.470   0.000154970     1000
SHAKE stats (type/ave/delta/count) on step 30200
     1   1.00000   1.40082e-06     3000
     1   109.470   0.000152547     1000
SHAKE stats (type/ave/delta/count) on step 30300
     1   1.00000   1.78884e-06     3000
     1   109.470   0.000269755     1000
SHAKE stats (type/ave/delta/count) on step 30400
     1   1.00000   2.28601e-06     3000
     1   109.470   0.000219279     1000
SHAKE stats (type/ave/delta/count) on step 30500
     1   1.00000   2.09499e-06     3000
     1   109.470   0.000217910     1000
   30500     307.9102   -12654.259            0   -10804.848   -420.77988 
SHAKE stats (type/ave/delta/count) on step 30600
     1   1.00000   1.84541e-06     3000
     1   109.470   0.000145772     1000
SHAKE stats (type/ave/delta/count) on step 30700
     1   1.00000   1.42270e-06     3000
     1   109.470   0.000199200     1000
SHAKE stats (type/ave/delta/count) on step 30800
     1   1.00000   1.60834e-06     3000
     1   109.470   0.000136626     1000
SHAKE stats (type/ave/delta/count) on step 30900
     1   1.00000   2.01086e-06     3000
     1   109.470   0.000210046     1000
SHAKE stats (type/ave/delta/count) on step 31000
     1   1.00000   1.72081e-06     3000
     1   109.470   0.000237516     1000
   31000    299.87924   -12547.102            0   -10745.928    275.53899 
SHAKE stats (type/ave/delta/count) on step 31100
     1   1.00000   1.21186e-06     3000
     1   109.470   0.000195690     1000
SHAKE stats (type/ave/delta/count) on step 31200
     1   1.00000   1.88768e-06     3000
     1   109.470   0.000202802     1000
SHAKE stats (type/ave/delta/count) on step 31300
     1   1.00000   1.43382e-06     3000
     1   109.470   0.000171477     1000
SHAKE stats (type/ave/delta/count) on step 31400
     1   1.00000   1.30288e-06     3000
     1   109.470   0.000140102     1000
SHAKE stats (type/ave/delta/count) on step 31500
     1   1.00000   1.32748e-06     3000
     1   109.470   0.000154577     1000
   31500    298.12612   -12557.209            0   -10766.564    71.778666 
SHAKE stats (type/ave/delta/count) on step 31600
     1   1.00000   1.66306e-06     3000
     1   109.470   0.000208950     1000
SHAKE stats (type/ave/delta/count) on step 31700
     1   1.00000   2.00917e-06     3000
     1   109.470   0.000289752     1000
SHAKE stats (type/ave/delta/count) on step 31800
     1   1.00000   1.49005e-06     3000
     1   109.470   0.000194735     1000
SHAKE stats (type/ave/delta/count) on step 31900
     1   1.00000   1.68391e-06     3000
     1   109.470   0.000236028     1000
SHAKE stats (type/ave/delta/count) on step 32000
     1   1.00000   1.38249e-06     3000
     1   109.470   0.000115293     1000
   32000    294.91792   -12560.995            0    -10789.62    122.22397 
SHAKE stats (type/ave/delta/count) on step 32100
     1   1.00000   1.68224e-06     3000
     1   109.470   0.000139990     1000
SHAKE stats (type/ave/delta/count) on step 32200
     1   1.00000   1.17928e-06     3000
     1   109.470   0.000154225     1000
SHAKE stats (type/ave/delta/count) on step 32300
     1   1.00000   1.36186e-06     3000
     1   109.470   0.000165895     1000
SHAKE stats (type/ave/delta/count) on step 32400
     1   1.00000   2.20397e-06     3000
     1   109.470   0.000220688     1000
SHAKE stats (type/ave/delta/count) on step 32500
     1   1.00000   1.37889e-06     3000
     1   109.470   0.000229924     1000
   32500     304.6816   -12636.127            0   -10806.108    652.36329 
SHAKE stats (type/ave/delta/count) on step 32600
     1   1.00000   1.45183e-06     3000
     1   109.470   0.000214957     1000
SHAKE stats (type/ave/delta/count) on step 32700
     1   1.00000   1.17547e-06     3000
     1   109.470   0.000169745     1000
SHAKE stats (type/ave/delta/count) on step 32800
     1   1.00000   1.42884e-06     3000
     1   109.470   0.000185981     1000
SHAKE stats (type/ave/delta/count) on step 32900
     1   1.00000   1.17743e-06     3000
     1   109.470   0.000133834     1000
SHAKE stats (type/ave/delta/count) on step 33000
     1   1.00000   1.22207e-06     3000
     1   109.470   0.000179220     1000
   33000    296.41767   -12589.348            0   -10808.965    104.59491 
SHAKE stats (type/ave/delta/count) on step 33100
     1   1.00000   2.35642e-06     3000
     1   109.470   0.000222771     1000
SHAKE stats (type/ave/delta/count) on step 33200
     1   1.00000   1.73406e-06     3000
     1   109.470   0.000157334     1000
SHAKE stats (type/ave/delta/count) on step 33300
     1   1.00000   1.49707e-06     3000
     1   109.470   0.000224263     1000
SHAKE stats (type/ave/delta/count) on step 33400
     1   1.00000   1.44279e-06     3000
     1   109.470   0.000142121     1000
SHAKE stats (type/ave/delta/count) on step 33500
     1   1.00000   1.39425e-06     3000
     1   109.470   0.000136632     1000
   33500    300.88238   -12604.728            0   -10797.529    59.266126 
SHAKE stats (type/ave/delta/count) on step 33600
     1   1.00000   1.34448e-06     3000
     1   109.470   0.000164447     1000
SHAKE stats (type/ave/delta/count) on step 33700
     1   1.00000   2.32953e-06     3000
     1   109.470   0.000136206     1000
SHAKE stats (type/ave/delta/count) on step 33800
     1   1.00000   1.80016e-06     3000
     1   109.470   0.000201850     1000
SHAKE stats (type/ave/delta/count) on step 33900
     1   1.00000   1.17234e-06     3000
     1   109.470   0.000128444     1000
SHAKE stats (type/ave/delta/count) on step 34000
     1   1.00000   1.50598e-06     3000
     1   109.470   0.000140036     1000
   34000    306.40192   -12633.088            0   -10792.737   -6.7438774 
SHAKE stats (type/ave/delta/count) on step 34100
     1   1.00000   1.82221e-06     3000
     1   109.470   0.000246494     1000
SHAKE stats (type/ave/delta/count) on step 34200
     1   1.00000   1.88706e-06     3000
     1   109.470   0.000188507     1000
SHAKE stats (type/ave/delta/count) on step 34300
     1   1.00000   2.31171e-06     3000
     1   109.470   0.000201133     1000
SHAKE stats (type/ave/delta/count) on step 34400
     1   1.00000   1.76954e-06     3000
     1   109.470   0.000165435     1000
SHAKE stats (type/ave/delta/count) on step 34500
     1   1.00000   1.65372e-06     3000
     1   109.470   0.000197045     1000
   34500    300.05044   -12694.312            0    -10892.11    921.85158 
SHAKE stats (type/ave/delta/count) on step 34600
     1   1.00000   1.41606e-06     3000
     1   109.470   0.000154617     1000
SHAKE stats (type/ave/delta/count) on step 34700
     1   1.00000   1.91263e-06     3000
     1   109.470   0.000207436     1000
SHAKE stats (type/ave/delta/count) on step 34800
     1   1.00000   1.81065e-06     3000
     1   109.470   0.000200668     1000
SHAKE stats (type/ave/delta/count) on step 34900
     1   1.00000   2.12330e-06     3000
     1   109.470   0.000158311     1000
SHAKE stats (type/ave/delta/count) on step 35000
     1   1.00000   1.31427e-06     3000
     1   109.470   0.000186816     1000
   35000    296.39141   -12630.435            0   -10850.209    1016.3794 
SHAKE stats (type/ave/delta/count) on step 35100
     1   1.00000   1.37147e-06     3000
     1   109.470   0.000165856     1000
SHAKE stats (type/ave/delta/count) on step 35200
     1   1.00000   2.31329e-06     3000
     1   109.470   0.000317696     1000
SHAKE stats (type/ave/delta/count) on step 35300
     1   1.00000   1.61185e-06     3000
     1   109.470   0.000150792     1000
SHAKE stats (type/ave/delta/count) on step 35400
     1   1.00000   1.70573e-06     3000
     1   109.470   0.000161722     1000
SHAKE stats (type/ave/delta/count) on step 35500
     1   1.00000   1.80310e-06     3000
     1   109.470   0.000170655     1000
   35500    311.81736   -12578.939            0    -10706.06    578.45766 
SHAKE stats (type/ave/delta/count) on step 35600
     1   1.00000   1.39107e-06     3000
     1   109.470   0.000142949     1000
SHAKE stats (type/ave/delta/count) on step 35700
     1   1.00000   1.80638e-06     3000
     1   109.470   0.000224278     1000
SHAKE stats (type/ave/delta/count) on step 35800
     1   1.00000   1.74866e-06     3000
     1   109.470   0.000171778     1000
SHAKE stats (type/ave/delta/count) on step 35900
     1   1.00000   1.49020e-06     3000
     1   109.470   0.000140281     1000
SHAKE stats (type/ave/delta/count) on step 36000
     1   1.00000   1.92130e-06     3000
     1   109.470   0.000202694     1000
   36000    299.98384   -12605.687            0   -10803.884    417.01965 
SHAKE stats (type/ave/delta/count) on step 36100
     1   1.00000   1.85089e-06     3000
     1   109.470   0.000160023     1000
SHAKE stats (type/ave/delta/count) on step 36200
     1   1.00000   1.07651e-06     3000
     1   109.470   0.000116585     1000
SHAKE stats (type/ave/delta/count) on step 36300
     1   1.00000   2.01966e-06     3000
     1   109.470   0.000202577     1000
SHAKE stats (type/ave/delta/count) on step 36400
     1   1.00000   1.14842e-06     3000
     1   109.470   0.000123277     1000
SHAKE stats (type/ave/delta/count) on step 36500
     1   1.00000   1.86120e-06     3000
     1   109.470   0.000201400     1000
   36500    298.63639   -12635.736            0   -10842.026    365.77365 
SHAKE stats (type/ave/delta/count) on step 36600
     1   1.00000   1.46064e-06     3000
     1   109.470   0.000159018     1000
SHAKE stats (type/ave/delta/count) on step 36700
     1   1.00000   1.37500e-06     3000
     1   109.470   0.000176577     1000
SHAKE stats (type/ave/delta/count) on step 36800
     1   1.00000   1.72406e-06     3000
     1   109.470   0.000162712     1000
SHAKE stats (type/ave/delta/count) on step 36900
     1   1.00000   1.22910e-06     3000
     1   109.470   0.000111379     1000
SHAKE stats (type/ave/delta/count) on step 37000
     1   1.00000   1.84762e-06     3000
     1   109.470   0.000213008     1000
   37000    305.13898   -12668.426            0   -10835.659    690.76931 
SHAKE stats (type/ave/delta/count) on step 37100
     1   1.00000   1.90524e-06     3000
     1   109.470   0.000154135     1000
SHAKE stats (type/ave/delta/count) on step 37200
     1   1.00000   1.44621e-06     3000
     1   109.470   0.000130645     1000
SHAKE stats (type/ave/delta/count) on step 37300
     1   1.00000   1.21035e-06     3000
     1   109.470   0.000139937     1000
SHAKE stats (type/ave/delta/count) on step 37400
     1   1.00000   1.65346e-06     3000
     1   109.470   0.000155633     1000
SHAKE stats (type/ave/delta/count) on step 37500
     1   1.00000   1.45411e-06     3000
     1   109.470   0.000184699     1000
   37500     298.3482   -12677.286            0   -10885.308    753.70851 
SHAKE stats (type/ave/delta/count) on step 37600
     1   1.00000   1.07945e-06     3000
     1   109.470   0.000161520     1000
SHAKE stats (type/ave/delta/count) on step 37700
     1   1.00000   1.71936e-06     3000
     1   109.470   0.000167484     1000
SHAKE stats (type/ave/delta/count) on step 37800
     1   1.00000   1.38919e-06     3000
     1   109.470   0.000165943     1000
SHAKE stats (type/ave/delta/count) on step 37900
     1   1.00000   1.24340e-06     3000
     1   109.470   0.000164200     1000
SHAKE stats (type/ave/delta/count) on step 38000
     1   1.00000   1.63999e-06     3000
     1   109.470   0.000164027     1000
   38000    307.30439   -12677.819            0   -10832.047    805.02948 
SHAKE stats (type/ave/delta/count) on step 38100
     1   1.00000   1.76813e-06     3000
     1   109.470   0.000236211     1000
SHAKE stats (type/ave/delta/count) on step 38200
     1   1.00000   1.61655e-06     3000
     1   109.470   0.000173195     1000
SHAKE stats (type/ave/delta/count) on step 38300
     1   1.00000   1.27782e-06     3000
     1   109.470   0.000171979     1000
SHAKE stats (type/ave/delta/count) on step 38400
     1   1.00000   1.28064e-06     3000
     1   109.470   0.000151925     1000
SHAKE stats (type/ave/delta/count) on step 38500
     1   1.00000   1.88447e-06     3000
     1   109.470   0.000223843     1000
   38500    295.08466   -12516.995            0   -10744.619    789.29398 
SHAKE stats (type/ave/delta/count) on step 38600
     1   1.00000   1.74697e-06     3000
     1   109.470   0.000149619     1000
SHAKE stats (type/ave/delta/count) on step 38700
     1   1.00000   1.26903e-06     3000
     1   109.470   0.000157663     1000
SHAKE stats (type/ave/delta/count) on step 38800
     1   1.00000   2.10427e-06     3000
     1   109.470   0.000184508     1000
SHAKE stats (type/ave/delta/count) on step 38900
     1   1.00000   1.33966e-06     3000
     1   109.470   0.000159565     1000
SHAKE stats (type/ave/delta/count) on step 39000
     1   1.00000   2.13557e-06     3000
     1   109.470   0.000192560     1000
   39000    300.56418   -12572.243            0   -10766.955    120.32259 
SHAKE stats (type/ave/delta/count) on step 39100
     1   1.00000   1.51178e-06     3000
     1   109.470   0.000170672     1000
SHAKE stats (type/ave/delta/count) on step 39200
     1   1.00000   1.35307e-06     3000
     1   109.470   0.000155018     1000
SHAKE stats (type/ave/delta/count) on step 39300
     1   1.00000   1.63606e-06     3000
     1   109.470   0.000130485     1000
SHAKE stats (type/ave/delta/count) on step 39400
     1   1.00000   1.66143e-06     3000
     1   109.470   0.000225062     1000
SHAKE stats (type/ave/delta/count) on step 39500
     1   1.00000   2.34081e-06     3000
     1   109.470   0.000198051     1000
   39500     291.8028   -12610.587            0   -10857.923   -281.20765 
SHAKE stats (type/ave/delta/count) on step 39600
     1   1.00000   2.07543e-06     3000
     1   109.470   0.000146470     1000
SHAKE stats (type/ave/delta/count) on step 39700
     1   1.00000   1.21540e-06     3000
     1   109.470   0.000131595     1000
SHAKE stats (type/ave/delta/count) on step 39800
     1   1.00000   1.38998e-06     3000
     1   109.470   0.000142391     1000
SHAKE stats (type/ave/delta/count) on step 39900
     1   1.00000   1.25311e-06     3000
     1   109.470   0.000173233     1000
SHAKE stats (type/ave/delta/count) on step 40000
     1   1.00000   1.30784e-06     3000
     1   109.470   0.000132685     1000
   40000      294.006    -12608.59            0   -10842.692     133.2085 
SHAKE stats (type/ave/delta/count) on step 40100
     1   1.00000   1.60869e-06     3000
     1   109.470   0.000149405     1000
SHAKE stats (type/ave/delta/count) on step 40200
     1   1.00000   1.27500e-06     3000
     1   109.470   0.000147254     1000
SHAKE stats (type/ave/delta/count) on step 40300
     1   1.00000   2.20036e-06     3000
     1   109.470   0.000163788     1000
SHAKE stats (type/ave/delta/count) on step 40400
     1   1.00000   1.62439e-06     3000
     1   109.470   0.000202098     1000
SHAKE stats (type/ave/delta/count) on step 40500
     1   1.00000   2.32082e-06     3000
     1   109.470   0.000366681     1000
   40500     301.4463    -12526.97            0   -10716.383    587.66438 
SHAKE stats (type/ave/delta/count) on step 40600
     1   1.00000   1.85002e-06     3000
     1   109.470   0.000153979     1000
SHAKE stats (type/ave/delta/count) on step 40700
     1   1.00000   1.14523e-06     3000
     1   109.470   0.000160747     1000
SHAKE stats (type/ave/delta/count) on step 40800
     1   1.00000   1.47314e-06     3000
     1   109.470   0.000209894     1000
SHAKE stats (type/ave/delta/count) on step 40900
     1   1.00000   1.38058e-06     3000
     1   109.470   0.000128660     1000
SHAKE stats (type/ave/delta/count) on step 41000
     1   1.00000   1.81300e-06     3000
     1   109.470   0.000153620     1000
   41000    304.85512   -12584.923            0   -10753.862   -343.05466 
SHAKE stats (type/ave/delta/count) on step 41100
     1   1.00000   1.80237e-06     3000
     1   109.470   0.000210004     1000
SHAKE stats (type/ave/delta/count) on step 41200
     1   1.00000   1.41904e-06     3000
     1   109.470   0.000192002     1000
SHAKE stats (type/ave/delta/count) on step 41300
     1   1.00000   1.68730e-06     3000
     1   109.470   0.000207555     1000
SHAKE stats (type/ave/delta/count) on step 41400
     1   1.00000   1.15438e-06     3000
     1   109.470   0.000123007     1000
SHAKE stats (type/ave/delta/count) on step 41500
     1   1.00000   1.47130e-06     3000
     1   109.470   0.000157036     1000
   41500    290.82974   -12588.641            0   -10841.821    106.86323 
SHAKE stats (type/ave/delta/count) on step 41600
     1   1.00000   1.63413e-06     3000
     1   109.470   0.000186159     1000
SHAKE stats (type/ave/delta/count) on step 41700
     1   1.00000   1.88574e-06     3000
     1   109.470   0.000209449     1000
SHAKE stats (type/ave/delta/count) on step 41800
     1   1.00000   1.35508e-06     3000
     1   109.470   0.000149098     1000
SHAKE stats (type/ave/delta/count) on step 41900
     1   1.00000   1.47225e-06     3000
     1   109.470   0.000200907     1000
SHAKE stats (type/ave/delta/count) on step 42000
     1   1.00000   2.13960e-06     3000
     1   109.470   0.000218533     1000
   42000    302.28102   -12593.829            0   -10778.228   -342.09547 
SHAKE stats (type/ave/delta/count) on step 42100
     1   1.00000   1.49975e-06     3000
     1   109.470   0.000204003     1000
SHAKE stats (type/ave/delta/count) on step 42200
     1   1.00000   1.14595e-06     3000
     1   109.470   0.000166397     1000
SHAKE stats (type/ave/delta/count) on step 42300
     1   1.00000   1.09526e-06     3000
     1   109.470   0.000145275     1000
SHAKE stats (type/ave/delta/count) on step 42400
     1   1.00000   2.13686e-06     3000
     1   109.470   0.000206197     1000
SHAKE stats (type/ave/delta/count) on step 42500
     1   1.00000   1.48900e-06     3000
     1   109.470   0.000166473     1000
   42500    314.16616   -12617.879            0   -10730.892    -179.8164 
SHAKE stats (type/ave/delta/count) on step 42600
     1   1.00000   1.51150e-06     3000
     1   109.470   0.000152531     1000
SHAKE stats (type/ave/delta/count) on step 42700
     1   1.00000   1.27663e-06     3000
     1   109.470   0.000153172     1000
SHAKE stats (type/ave/delta/count) on step 42800
     1   1.00000   1.26291e-06     3000
     1   109.470   0.000147555     1000
SHAKE stats (type/ave/delta/count) on step 42900
     1   1.00000   2.38891e-06     3000
     1   109.470   0.000190043     1000
SHAKE stats (type/ave/delta/count) on step 43000
     1   1.00000   1.57380e-06     3000
     1   109.470   0.000166073     1000
   43000    305.67477   -12606.386            0   -10770.402    72.822608 
SHAKE stats (type/ave/delta/count) on step 43100
     1   1.00000   1.52621e-06     3000
     1   109.470   0.000150870     1000
SHAKE stats (type/ave/delta/count) on step 43200
     1   1.00000   1.62645e-06     3000
     1   109.470   0.000157785     1000
SHAKE stats (type/ave/delta/count) on step 43300
     1   1.00000   2.68210e-06     3000
     1   109.470   0.000206815     1000
SHAKE stats (type/ave/delta/count) on step 43400
     1   1.00000   1.47431e-06     3000
     1   109.470   0.000177322     1000
SHAKE stats (type/ave/delta/count) on step 43500
     1   1.00000   2.08812e-06     3000
     1   109.470   0.000166791     1000
   43500    285.75495   -12610.614            0   -10894.274   -583.74708 
SHAKE stats (type/ave/delta/count) on step 43600
     1   1.00000   1.06068e-06     3000
     1   109.470   0.000115973     1000
SHAKE stats (type/ave/delta/count) on step 43700
     1   1.00000   1.66223e-06     3000
     1   109.470   0.000129254     1000
SHAKE stats (type/ave/delta/count) on step 43800
     1   1.00000   1.17551e-06     3000
     1   109.470   0.000161012     1000
SHAKE stats (type/ave/delta/count) on step 43900
     1   1.00000   1.25854e-06     3000
     1   109.470   0.000140242     1000
SHAKE stats (type/ave/delta/count) on step 44000
     1   1.00000   1.95377e-06     3000
     1   109.470   0.000246613     1000
   44000    299.43244   -12654.741            0    -10856.25    698.24141 
SHAKE stats (type/ave/delta/count) on step 44100
     1   1.00000   1.14580e-06     3000
     1   109.470   0.000167944     1000
SHAKE stats (type/ave/delta/count) on step 44200
     1   1.00000   1.19953e-06     3000
     1   109.470   0.000122947     1000
SHAKE stats (type/ave/delta/count) on step 44300
     1   1.00000   1.50072e-06     3000
     1   109.470   0.000195487     1000
SHAKE stats (type/ave/delta/count) on step 44400
     1   1.00000   1.72605e-06     3000
     1   109.470   0.000216125     1000
SHAKE stats (type/ave/delta/count) on step 44500
     1   1.00000   1.27139e-06     3000
     1   109.470   0.000174687     1000
   44500    296.99972   -12586.817            0   -10802.938    397.53209 
SHAKE stats (type/ave/delta/count) on step 44600
     1   1.00000   1.22996e-06     3000
     1   109.470   0.000158010     1000
SHAKE stats (type/ave/delta/count) on step 44700
     1   1.00000   1.77088e-06     3000
     1   109.470   0.000200793     1000
SHAKE stats (type/ave/delta/count) on step 44800
     1   1.00000   2.10130e-06     3000
     1   109.470   0.000263376     1000
SHAKE stats (type/ave/delta/count) on step 44900
     1   1.00000   1.83628e-06     3000
     1   109.470   0.000121447     1000
SHAKE stats (type/ave/delta/count) on step 45000
     1   1.00000   1.56475e-06     3000
     1   109.470   0.000150750     1000
   45000    306.20425   -12644.012            0   -10804.848    592.07133 
SHAKE stats (type/ave/delta/count) on step 45100
     1   1.00000   1.84871e-06     3000
     1   109.470   0.000177877     1000
SHAKE stats (type/ave/delta/count) on step 45200
     1   1.00000   1.94081e-06     3000
     1   109.470   0.000182488     1000
SHAKE stats (type/ave/delta/count) on step 45300
     1   1.00000   1.32703e-06     3000
     1   109.470   0.000168089     1000
SHAKE stats (type/ave/delta/count) on step 45400
     1   1.00000   1.69598e-06     3000
     1   109.470   0.000132131     1000
SHAKE stats (type/ave/delta/count) on step 45500
     1   1.00000   1.33014e-06     3000
     1   109.470   0.000142892     1000
   45500    295.31468   -12662.271            0   -10888.513    313.23395 
SHAKE stats (type/ave/delta/count) on step 45600
     1   1.00000   2.24233e-06     3000
     1   109.470   0.000229409     1000
SHAKE stats (type/ave/delta/count) on step 45700
     1   1.00000   1.87728e-06     3000
     1   109.470   0.000219180     1000
SHAKE stats (type/ave/delta/count) on step 45800
     1   1.00000   1.68145e-06     3000
     1   109.470   0.000187623     1000
SHAKE stats (type/ave/delta/count) on step 45900
     1   1.00000   1.87789e-06     3000
     1   109.470   0.000255505     1000
SHAKE stats (type/ave/delta/count) on step 46000
     1   1.00000   1.75058e-06     3000
     1   109.470   0.000232560     1000
   46000    304.35745   -12669.065            0   -10840.993    147.30429 
SHAKE stats (type/ave/delta/count) on step 46100
     1   1.00000   1.19111e-06     3000
     1   109.470   0.000165920     1000
SHAKE stats (type/ave/delta/count) on step 46200
     1   1.00000   1.62814e-06     3000
     1   109.470   0.000189801     1000
SHAKE stats (type/ave/delta/count) on step 46300
     1   1.00000   1.42180e-06     3000
     1   109.470   0.000226697     1000
SHAKE stats (type/ave/delta/count) on step 46400
     1   1.00000   1.75851e-06     3000
     1   109.470   0.000207636     1000
SHAKE stats (type/ave/delta/count) on step 46500
     1   1.00000   1.16576e-06     3000
     1   109.470   0.000136269     1000
   46500    309.69687   -12598.479            0   -10738.336    36.843092 
SHAKE stats (type/ave/delta/count) on step 46600
     1   1.00000   1.31169e-06     3000
     1   109.470   0.000174518     1000
SHAKE stats (type/ave/delta/count) on step 46700
     1   1.00000   1.26504e-06     3000
     1   109.470   0.000155186     1000
SHAKE stats (type/ave/delta/count) on step 46800
     1   1.00000   1.90383e-06     3000
     1   109.470   0.000182110     1000
SHAKE stats (type/ave/delta/count) on step 46900
     1   1.00000   1.57318e-06     3000
     1   109.470   0.000133897     1000
SHAKE stats (type/ave/delta/count) on step 47000
     1   1.00000   1.53365e-06     3000
     1   109.470   0.000178871     1000
   47000    292.51343   -12574.788            0   -10817.855    3.0123055 
SHAKE stats (type/ave/delta/count) on step 47100
     1   1.00000   2.69447e-06     3000
     1   109.470   0.000254521     1000
SHAKE stats (type/ave/delta/count) on step 47200
     1   1.00000   1.52176e-06     3000
     1   109.470   0.000140951     1000
SHAKE stats (type/ave/delta/count) on step 47300
     1   1.00000   1.65598e-06     3000
     1   109.470   0.000183952     1000
SHAKE stats (type/ave/delta/count) on step 47400
     1   1.00000   1.57793e-06     3000
     1   109.470   0.000158609     1000
SHAKE stats (type/ave/delta/count) on step 47500
     1   1.00000   1.47124e-06     3000
     1   109.470   0.000147464     1000
   47500     293.4483    -12643.18            0   -10880.632   -51.338422 
SHAKE stats (type/ave/delta/count) on step 47600
     1   1.00000   1.24278e-06     3000
     1   109.470   0.000143173     1000
SHAKE stats (type/ave/delta/count) on step 47700
     1   1.00000   1.14426e-06     3000
     1   109.470   0.000142626     1000
SHAKE stats (type/ave/delta/count) on step 47800
     1   1.00000   1.47155e-06     3000
     1   109.470   0.000163345     1000
SHAKE stats (type/ave/delta/count) on step 47900
     1   1.00000   2.56713e-06     3000
     1   109.470   0.000239523     1000
SHAKE stats (type/ave/delta/count) on step 48000
     1   1.00000   1.75816e-06     3000
     1   109.470   0.000154977     1000
   48000    301.60352     -12594.6            0   -10783.069   -349.99594 
SHAKE stats (type/ave/delta/count) on step 48100
     1   1.00000   1.54630e-06     3000
     1   109.470   0.000161241     1000
SHAKE stats (type/ave/delta/count) on step 48200
     1   1.00000   1.71933e-06     3000
     1   109.470   0.000235710     1000
SHAKE stats (type/ave/delta/count) on step 48300
     1   1.00000   1.28462e-06     3000
     1   109.470   0.000139403     1000
SHAKE stats (type/ave/delta/count) on step 48400
     1   1.00000   1.27384e-06     3000
     1   109.470   0.000127828     1000
SHAKE stats (type/ave/delta/count) on step 48500
     1   1.00000   1.43396e-06     3000
     1   109.470   0.000139129     1000
   48500    301.60637   -12518.173            0   -10706.625    572.60095 
SHAKE stats (type/ave/delta/count) on step 48600
     1   1.00000   1.85935e-06     3000
     1   109.470   0.000190540     1000
SHAKE stats (type/ave/delta/count) on step 48700
     1   1.00000   1.95681e-06     3000
     1   109.470   0.000151666     1000
SHAKE stats (type/ave/delta/count) on step 48800
     1   1.00000   1.35542e-06     3000
     1   109.470   0.000145441     1000
SHAKE stats (type/ave/delta/count) on step 48900
     1   1.00000   2.14088e-06     3000
     1   109.470   0.000119256     1000
SHAKE stats (type/ave/delta/count) on step 49000
     1   1.00000   1.51629e-06     3000
     1   109.470   0.000150809     1000
   49000    301.40968   -12633.932            0   -10823.566   -105.95039 
SHAKE stats (type/ave/delta/count) on step 49100
     1   1.00000   1.35496e-06     3000
     1   109.470   0.000159580     1000
SHAKE stats (type/ave/delta/count) on step 49200
     1   1.00000   1.41872e-06     3000
     1   109.470   0.000159835     1000
SHAKE stats (type/ave/delta/count) on step 49300
     1   1.00000   1.15362e-06     3000
     1   109.470   0.000136709     1000
SHAKE stats (type/ave/delta/count) on step 49400
     1   1.00000   1.44960e-06     3000
     1   109.470   0.000131313     1000
SHAKE stats (type/ave/delta/count) on step 49500
     1   1.00000   1.68785e-06     3000
     1   109.470   0.000178900     1000
   49500    294.79927   -12591.337            0   -10820.674   -618.91768 
SHAKE stats (type/ave/delta/count) on step 49600
     1   1.00000   1.76474e-06     3000
     1   109.470   0.000167327     1000
SHAKE stats (type/ave/delta/count) on step 49700
     1   1.00000   1.30401e-06     3000
     1   109.470   0.000156593     1000
SHAKE stats (type/ave/delta/count) on step 49800
     1   1.00000   2.34692e-06     3000
     1   109.470   0.000302487     1000
SHAKE stats (type/ave/delta/count) on step 49900
     1   1.00000   1.36992e-06     3000
     1   109.470   0.000180209     1000
SHAKE stats (type/ave/delta/count) on step 50000
     1   1.00000   1.85146e-06     3000
     1   109.470   0.000153594     1000
   50000    307.32491   -12507.146            0    -10661.25    696.93648 
SHAKE stats (type/ave/delta/count) on step 50100
     1   1.00000   1.19062e-06     3000
     1   109.470   0.000168177     1000
SHAKE stats (type/ave/delta/count) on step 50200
     1   1.00000   1.29785e-06     3000
     1   109.470   0.000154722     1000
SHAKE stats (type/ave/delta/count) on step 50300
     1   1.00000   1.49181e-06     3000
     1   109.470   0.000158944     1000
SHAKE stats (type/ave/delta/count) on step 50400
     1   1.00000   1.38948e-06     3000
     1   109.470   0.000171934     1000
SHAKE stats (type/ave/delta/count) on step 50500
     1   1.00000   1.94172e-06     3000
     1   109.470   0.000236634     1000
   50500    309.58917   -12589.134            0   -10729.639   -39.032641 
SHAKE stats (type/ave/delta/count) on step 50600
     1   1.00000   1.40281e-06     3000
     1   109.470   0.000168861     1000
SHAKE stats (type/ave/delta/count) on step 50700
     1   1.00000   1.79724e-06     3000
     1   109.470   0.000176353     1000
SHAKE stats (type/ave/delta/count) on step 50800
     1   1.00000   1.32093e-06     3000
     1   109.470   0.000146209     1000
SHAKE stats (type/ave/delta/count) on step 50900
     1   1.00000   1.36408e-06     3000
     1   109.470   0.000173317     1000
SHAKE stats (type/ave/delta/count) on step 51000
     1   1.00000   1.53299e-06     3000
     1   109.470   0.000156282     1000
   51000    294.41591   -12655.898            0   -10887.538   -617.26427 
SHAKE stats (type/ave/delta/count) on step 51100
     1   1.00000   1.14096e-06     3000
     1   109.470   0.000138104     1000
SHAKE stats (type/ave/delta/count) on step 51200
     1   1.00000   1.44573e-06     3000
     1   109.470   0.000143378     1000
SHAKE stats (type/ave/delta/count) on step 51300
     1   1.00000   1.42426e-06     3000
     1   109.470   0.000143614     1000
SHAKE stats (type/ave/delta/count) on step 51400
     1   1.00000   2.24646e-06     3000
     1   109.470   0.000202237     1000
SHAKE stats (type/ave/delta/count) on step 51500
     1   1.00000   1.58403e-06     3000
     1   109.470   0.000176101     1000
   51500    300.88648   -12543.616            0   -10736.392    111.82885 
SHAKE stats (type/ave/delta/count) on step 51600
     1   1.00000   1.90012e-06     3000
     1   109.470   0.000230964     1000
SHAKE stats (type/ave/delta/count) on step 51700
     1   1.00000   1.46253e-06     3000
     1   109.470   0.000194589     1000
SHAKE stats (type/ave/delta/count) on step 51800
     1   1.00000   1.00448e-06     3000
     1   109.470   0.000138281     1000
SHAKE stats (type/ave/delta/count) on step 51900
     1   1.00000   1.39667e-06     3000
     1   109.470   0.000160107     1000
SHAKE stats (type/ave/delta/count) on step 52000
     1   1.00000   2.22972e-06     3000
     1   109.470   0.000225995     1000
   52000    304.25689   -12487.627            0   -10660.159   -39.024306 
SHAKE stats (type/ave/delta/count) on step 52100
     1   1.00000   1.38685e-06     3000
     1   109.470   0.000164691     1000
SHAKE stats (type/ave/delta/count) on step 52200
     1   1.00000   2.05042e-06     3000
     1   109.470   0.000196780     1000
SHAKE stats (type/ave/delta/count) on step 52300
     1   1.00000   2.02297e-06     3000
     1   109.470   0.000148863     1000
SHAKE stats (type/ave/delta/count) on step 52400
     1   1.00000   2.53115e-06     3000
     1   109.470   0.000283210     1000
SHAKE stats (type/ave/delta/count) on step 52500
     1   1.00000   1.90606e-06     3000
     1   109.470   0.000217928     1000
   52500    289.64993     -12592.8            0   -10853.066     290.0597 
SHAKE stats (type/ave/delta/count) on step 52600
     1   1.00000   1.39343e-06     3000
     1   109.470   0.000166070     1000
SHAKE stats (type/ave/delta/count) on step 52700
     1   1.00000   1.99185e-06     3000
     1   109.470   0.000239953     1000
SHAKE stats (type/ave/delta/count) on step 52800
     1   1.00000   1.86895e-06     3000
     1   109.470   0.000227145     1000
SHAKE stats (type/ave/delta/count) on step 52900
     1   1.00000   2.67634e-06     3000
     1   109.470   0.000344936     1000
SHAKE stats (type/ave/delta/count) on step 53000
     1   1.00000   1.64478e-06     3000
     1   109.470   0.000269148     1000
   53000    301.11343   -12629.055            0   -10820.467   -511.16018 
SHAKE stats (type/ave/delta/count) on step 53100
     1   1.00000   1.25745e-06     3000
     1   109.470   0.000186086     1000
SHAKE stats (type/ave/delta/count) on step 53200
     1   1.00000   1.66947e-06     3000
     1   109.470   0.000187039     1000
SHAKE stats (type/ave/delta/count) on step 53300
     1   1.00000   1.57232e-06     3000
     1   109.470   0.000204598     1000
SHAKE stats (type/ave/delta/count) on step 53400
     1   1.00000   1.37248e-06     3000
     1   109.470   0.000134882     1000
SHAKE stats (type/ave/delta/count) on step 53500
     1   1.00000   1.13335e-06     3000
     1   109.470   0.000226952     1000
   53500    309.37276   -12497.417            0   -10639.221    367.38918 
SHAKE stats (type/ave/delta/count) on step 53600
     1   1.00000   1.63032e-06     3000
     1   109.470   0.000172664     1000
SHAKE stats (type/ave/delta/count) on step 53700
     1   1.00000   1.38583e-06     3000
     1   109.470   0.000169646     1000
SHAKE stats (type/ave/delta/count) on step 53800
     1   1.00000   1.77528e-06     3000
     1   109.470   0.000178077     1000
SHAKE stats (type/ave/delta/count) on step 53900
     1   1.00000   2.56748e-06     3000
     1   109.470   0.000208172     1000
SHAKE stats (type/ave/delta/count) on step 54000
     1   1.00000   1.95514e-06     3000
     1   109.470   0.000212388     1000
   54000    302.81406   -12605.368            0   -10786.566    -332.8351 
SHAKE stats (type/ave/delta/count) on step 54100
     1   1.00000   1.85464e-06     3000
     1   109.470   0.000181462     1000
SHAKE stats (type/ave/delta/count) on step 54200
     1   1.00000   1.85865e-06     3000
     1   109.470   0.000196872     1000
SHAKE stats (type/ave/delta/count) on step 54300
     1   1.00000   1.60317e-06     3000
     1   109.470   0.000163289     1000
SHAKE stats (type/ave/delta/count) on step 54400
     1   1.00000   1.84597e-06     3000
     1   109.470   0.000149572     1000
SHAKE stats (type/ave/delta/count) on step 54500
     1   1.00000   1.35419e-06     3000
     1   109.470   0.000156563     1000
   54500    292.06451   -12644.055            0   -10889.818   -94.091639 
SHAKE stats (type/ave/delta/count) on step 54600
     1   1.00000   1.74894e-06     3000
     1   109.470   0.000238204     1000
SHAKE stats (type/ave/delta/count) on step 54700
     1   1.00000   2.93439e-06     3000
     1   109.470   0.000414186     1000
SHAKE stats (type/ave/delta/count) on step 54800
     1   1.00000   1.49475e-06     3000
     1   109.470   0.000159379     1000
SHAKE stats (type/ave/delta/count) on step 54900
     1   1.00000   1.30590e-06     3000
     1   109.470   0.000176990     1000
SHAKE stats (type/ave/delta/count) on step 55000
     1   1.00000   1.36323e-06     3000
     1   109.470   0.000178462     1000
   55000    307.36977   -12604.916            0   -10758.751    582.82939 
SHAKE stats (type/ave/delta/count) on step 55100
     1   1.00000   1.46438e-06     3000
     1   109.470   0.000154673     1000
SHAKE stats (type/ave/delta/count) on step 55200
     1   1.00000   1.72625e-06     3000
     1   109.470   0.000217234     1000
SHAKE stats (type/ave/delta/count) on step 55300
     1   1.00000   1.41826e-06     3000
     1   109.470   0.000165203     1000
SHAKE stats (type/ave/delta/count) on step 55400
     1   1.00000   2.30465e-06     3000
     1   109.470   0.000167513     1000
SHAKE stats (type/ave/delta/count) on step 55500
     1   1.00000   1.59957e-06     3000
     1   109.470   0.000149950     1000
   55500    303.04619   -12570.686            0    -10750.49   -154.50534 
SHAKE stats (type/ave/delta/count) on step 55600
     1   1.00000   1.63612e-06     3000
     1   109.470   0.000170227     1000
SHAKE stats (type/ave/delta/count) on step 55700
     1   1.00000   1.97777e-06     3000
     1   109.470   0.000164905     1000
SHAKE stats (type/ave/delta/count) on step 55800
     1   1.00000   1.15499e-06     3000
     1   109.470   0.000126401     1000
SHAKE stats (type/ave/delta/count) on step 55900
     1   1.00000   1.68920e-06     3000
     1   109.470   0.000143116     1000
SHAKE stats (type/ave/delta/count) on step 56000
     1   1.00000   1.44933e-06     3000
     1   109.470   0.000131273     1000
   56000    292.08726   -12609.441            0   -10855.068   -223.82673 
SHAKE stats (type/ave/delta/count) on step 56100
     1   1.00000   1.73680e-06     3000
     1   109.470   0.000201443     1000
SHAKE stats (type/ave/delta/count) on step 56200
     1   1.00000   1.51996e-06     3000
     1   109.470   0.000139561     1000
SHAKE stats (type/ave/delta/count) on step 56300
     1   1.00000   1.53946e-06     3000
     1   109.470   0.000229451     1000
SHAKE stats (type/ave/delta/count) on step 56400
     1   1.00000   1.30906e-06     3000
     1   109.470   0.000126466     1000
SHAKE stats (type/ave/delta/count) on step 56500
     1   1.00000   1.35714e-06     3000
     1   109.470   0.000125768     1000
   56500    301.42064   -12627.589            0   -10817.156    168.96279 
SHAKE stats (type/ave/delta/count) on step 56600
     1   1.00000   1.53286e-06     3000
     1   109.470   0.000237806     1000
SHAKE stats (type/ave/delta/count) on step 56700
     1   1.00000   1.08476e-06     3000
     1   109.470   0.000124648     1000
SHAKE stats (type/ave/delta/count) on step 56800
     1   1.00000   1.10146e-06     3000
     1   109.470   0.000143029     1000
SHAKE stats (type/ave/delta/count) on step 56900
     1   1.00000   1.36321e-06     3000
     1   109.470   0.000141069     1000
SHAKE stats (type/ave/delta/count) on step 57000
     1   1.00000   1.74782e-06     3000
     1   109.470   0.000191533     1000
   57000    304.29542   -12610.575            0   -10782.875   -86.227302 
SHAKE stats (type/ave/delta/count) on step 57100
     1   1.00000   1.54585e-06     3000
     1   109.470   0.000176803     1000
SHAKE stats (type/ave/delta/count) on step 57200
     1   1.00000   1.60049e-06     3000
     1   109.470   0.000202261     1000
SHAKE stats (type/ave/delta/count) on step 57300
     1   1.00000   1.63481e-06     3000
     1   109.470   0.000196523     1000
SHAKE stats (type/ave/delta/count) on step 57400
     1   1.00000   1.30340e-06     3000
     1   109.470   0.000156259     1000
SHAKE stats (type/ave/delta/count) on step 57500
     1   1.00000   2.04148e-06     3000
     1   109.470   0.000170430     1000
   57500    300.30724   -12599.139            0   -10795.394   -114.77457 
SHAKE stats (type/ave/delta/count) on step 57600
     1   1.00000   1.69216e-06     3000
     1   109.470   0.000198645     1000
SHAKE stats (type/ave/delta/count) on step 57700
     1   1.00000   1.36369e-06     3000
     1   109.470   0.000134289     1000
SHAKE stats (type/ave/delta/count) on step 57800
     1   1.00000   1.15883e-06     3000
     1   109.470   0.000134178     1000
SHAKE stats (type/ave/delta/count) on step 57900
     1   1.00000   1.80410e-06     3000
     1   109.470   0.000213287     1000
SHAKE stats (type/ave/delta/count) on step 58000
     1   1.00000   1.63041e-06     3000
     1   109.470   0.000246691     1000
   58000    301.20076   -12637.438            0   -10828.327    212.26234 
SHAKE stats (type/ave/delta/count) on step 58100
     1   1.00000   1.34420e-06     3000
     1   109.470   0.000158053     1000
SHAKE stats (type/ave/delta/count) on step 58200
     1   1.00000   2.13312e-06     3000
     1   109.470   0.000248618     1000
SHAKE stats (type/ave/delta/count) on step 58300
     1   1.00000   1.49308e-06     3000
     1   109.470   0.000213898     1000
SHAKE stats (type/ave/delta/count) on step 58400
     1   1.00000   1.40920e-06     3000
     1   109.470   0.000169914     1000
SHAKE stats (type/ave/delta/count) on step 58500
     1   1.00000   2.16379e-06     3000
     1   109.470   0.000175175     1000
   58500    297.46658   -12637.519            0   -10850.836   -299.35947 
SHAKE stats (type/ave/delta/count) on step 58600
     1   1.00000   1.42703e-06     3000
     1   109.470   0.000168501     1000
SHAKE stats (type/ave/delta/count) on step 58700
     1   1.00000   1.71062e-06     3000
     1   109.470   0.000222218     1000
SHAKE stats (type/ave/delta/count) on step 58800
     1   1.00000   1.21902e-06     3000
     1   109.470   0.000132261     1000
SHAKE stats (type/ave/delta/count) on step 58900
     1   1.00000   1.52818e-06     3000
     1   109.470   0.000188843     1000
SHAKE stats (type/ave/delta/count) on step 59000
     1   1.00000   1.47167e-06     3000
     1   109.470   0.000135383     1000
   59000    296.48946   -12560.419            0   -10779.605   -167.41755 
SHAKE stats (type/ave/delta/count) on step 59100
     1   1.00000   1.39319e-06     3000
     1   109.470   0.000191697     1000
SHAKE stats (type/ave/delta/count) on step 59200
     1   1.00000   1.73714e-06     3000
     1   109.470   0.000209710     1000
SHAKE stats (type/ave/delta/count) on step 59300
     1   1.00000   1.27926e-06     3000
     1   109.470   0.000156534     1000
SHAKE stats (type/ave/delta/count) on step 59400
     1   1.00000   1.04021e-06     3000
     1   109.470   9.89488e-05     1000
SHAKE stats (type/ave/delta/count) on step 59500
     1   1.00000   1.83487e-06     3000
     1   109.470   0.000310277     1000
   59500    302.19617   -12578.209            0   -10763.118    351.22042 
SHAKE stats (type/ave/delta/count) on step 59600
     1   1.00000   1.50974e-06     3000
     1   109.470   0.000149286     1000
SHAKE stats (type/ave/delta/count) on step 59700
     1   1.00000   2.46213e-06     3000
     1   109.470   0.000179609     1000
SHAKE stats (type/ave/delta/count) on step 59800
     1   1.00000   1.45474e-06     3000
     1   109.470   0.000111500     1000
SHAKE stats (type/ave/delta/count) on step 59900
     1   1.00000   1.52492e-06     3000
     1   109.470   0.000114721     1000
SHAKE stats (type/ave/delta/count) on step 60000
     1   1.00000   1.52462e-06     3000
     1   109.470   0.000148661     1000
   60000    297.64558   -12619.442            0   -10831.684    74.923105 
Loop time of 977.776 on 1 procs for 50000 steps with 3016 atoms

Performance: 8.836 ns/day, 2.716 hours/ns, 51.136 timesteps/s
65.4% CPU use with 1 MPI tasks x no OpenMP threads

MPI task timing breakdown:
Section |  min time  |  avg time  |  max time  |%varavg| %total
---------------------------------------------------------------
Pair    | 845.17     | 845.17     | 845.17     |   0.0 | 86.44
Bond    | 0.002654   | 0.002654   | 0.002654   |   0.0 |  0.00
Kspace  | 39.36      | 39.36      | 39.36      |   0.0 |  4.03
Neigh   | 81.34      | 81.34      | 81.34      |   0.0 |  8.32
Comm    | 2.4563     | 2.4563     | 2.4563     |   0.0 |  0.25
Output  | 0.24452    | 0.24452    | 0.24452    |   0.0 |  0.03
Modify  | 8.9805     | 8.9805     | 8.9805     |   0.0 |  0.92
Other   |            | 0.2189     |            |       |  0.02

Nlocal:        3016.00 ave        3016 max        3016 min
Histogram: 1 0 0 0 0 0 0 0 0 0
Nghost:        13838.0 ave       13838 max       13838 min
Histogram: 1 0 0 0 0 0 0 0 0 0
Neighs:    1.08585e+06 ave 1.08585e+06 max 1.08585e+06 min
Histogram: 1 0 0 0 0 0 0 0 0 0

Total # of neighbors = 1085851
Ave neighs/atom = 360.03017
Ave special neighs/atom = 1.9893899
Neighbor list builds = 4506
Dangerous builds = 1548

write_data  system_after_nvt.data
System init for write_data ...
PPPM initialization ...
  using 12-bit tables for long-range coulomb (../kspace.cpp:340)
  G vector (1/distance) = 0.26320807
  grid = 16 16 16
  stencil order = 5
  estimated absolute RMS force accuracy = 0.033315353
  estimated relative force accuracy = 0.00010032819
  using double precision FFTW3
  3d grid and FFT values/proc = 12167 4096
Total wall time: 0:18:17
