LAMMPS data file via write_data, version 29 Sep 2021, timestep = 60000

3016 atoms
4 atom types
2000 bonds
1 bond types
1000 angles
1 angle types

-0.0651201813152884 31.09932018131471 xlo xhi
-0.0651201813152884 31.09932018131471 ylo yhi
-0.0651201813152884 31.09932018131471 zlo zhi

Masses

1 15.9994
2 1.008
3 22.9898
4 35.453

Pair Coeffs # lj/charmm/coul/long

1 0.1553 3.166 0.1553 3.166
2 0 0 0 0
3 0.352642 2.15954 0.352642 2.15954
4 0.012785 4.83045 0.012785 4.83045

Bond Coeffs # harmonic

1 600 1

Angle Coeffs # harmonic

1 75 109.47

Atoms # full

2488 830 1 -0.8476 2.478960886836097 3.8925977061721144 2.4111459850868333 1 0 1
2777 926 2 0.4238 1.2001504152168962 7.251226603161348 3.137112518684568 0 0 1
759 253 2 0.4238 6.621966121291401 -0.05392599737753301 1.8573373553883068 0 0 0
1071 357 2 0.4238 3.269262325456405 1.3620524598957486 1.3063250291856696 1 1 0
1069 357 1 -0.8476 4.002763949863637 0.7185035997533915 1.087646245443723 1 1 0
281 94 2 0.4238 1.2350780626984186 5.001832555010309 3.6465062376358572 0 1 0
1959 653 2 0.4238 5.513431704126616 3.7080376448556702 3.4633035942462387 0 0 1
2489 830 2 0.4238 2.007287645853043 3.249576341141654 1.8077815659089886 1 0 1
2490 830 2 0.4238 2.856086804164049 3.3989884261574077 3.194808150935503 1 0 1
2926 976 1 -0.8476 1.3397864487950757 2.068221529394238 0.9157100611414115 0 1 1
2928 976 2 0.4238 1.0978349693513492 1.0979355633001524 0.9135270586975649 0 1 1
2947 983 1 -0.8476 4.58489349401603 4.523547969954485 0.6488798460472288 0 1 1
2948 983 2 0.4238 5.363199328133126 3.927436305725597 0.846087975213291 0 1 1
2949 983 2 0.4238 3.818716113141427 4.278936979973118 1.2431339653791798 0 1 1
2639 880 2 0.4238 28.696105612011863 3.805989829856681 1.7306512034688568 -1 1 1
757 253 1 -0.8476 6.149291835761968 0.3070156697830514 2.6612655011435744 0 0 0
758 253 2 0.4238 5.374547101630119 0.8675297119908596 2.3686995550767396 0 0 0
282 94 2 0.4238 0.7138313612280195 5.115703055017259 5.189866821053686 0 1 0
280 94 1 -0.8476 0.9607232911988908 5.634040163116515 4.371104869566251 0 1 0
1388 463 2 0.4238 4.199580649237249 4.290135406147658 5.714842375705933 0 0 0
1443 481 2 0.4238 2.8128887636254363 1.9786153054803644 5.184225342580535 0 1 0
1441 481 1 -0.8476 3.1657456354210267 2.02798462286645 4.249851281942584 0 1 0
1442 481 2 0.4238 3.013932154435129 1.1532825184542632 3.7895806485559307 0 1 0
1957 653 1 -0.8476 5.183907925470035 4.477682368188323 4.010168810419539 0 0 1
1958 653 2 0.4238 5.942600172734297 5.100974754813992 4.199623572069587 0 0 1
2562 854 2 0.4238 11.216633821970238 4.914385524246644 1.3290088662988475 0 0 1
635 212 2 0.4238 7.111013462300531 2.7059054410141075 1.4216645495019435 0 0 0
634 212 1 -0.8476 6.959620403148508 3.663155332185166 1.6681454932869078 0 0 0
407 136 2 0.4238 8.976270059010488 0.4084628511086451 1.0582374848673475 1 1 0
408 136 2 0.4238 10.274572903740136 1.2042206229494519 0.46848694600748225 1 1 0
636 212 2 0.4238 7.596806576101658 3.9255323392552954 2.392819441073417 0 0 0
2561 854 2 0.4238 11.479579898329884 6.49340277477543 1.6517946347763695 0 0 1
406 136 1 -0.8476 9.690581348961462 1.0754912701355681 1.2699747441945028 1 1 0
2653 885 1 -0.8476 8.864273140048484 4.749247409505341 3.6140094639297073 1 1 1
2655 885 2 0.4238 9.733247157400704 5.238374033393991 3.5389140484245414 1 1 1
849 283 2 0.4238 10.77872360198121 2.4747626178431372 1.6133412475054159 0 1 0
1805 602 2 0.4238 8.132072125151371 5.888273688582981 1.2768116199637862 0 0 0
1804 602 1 -0.8476 8.205427849628835 6.422435659490886 0.43461803065637683 0 0 0
2918 973 2 0.4238 10.46920896333926 0.6582317402666282 4.365045883370914 0 1 1
2917 973 1 -0.8476 9.579829762791709 0.4397850713855862 3.9634416717368173 0 1 1
2654 885 2 0.4238 8.585150475765062 4.710997118931929 4.5735029243339635 1 1 1
2993 998 2 0.4238 14.775535669127338 3.2240688429277875 5.522585634363844 0 1 0
2992 998 1 -0.8476 15.556484561430652 2.9713593531377605 4.9513962286021975 0 1 0
2158 720 1 -0.8476 14.959057183082052 0.08140647627451139 3.080358527771386 0 0 0
2160 720 2 0.4238 14.592899736504602 30.668320018177695 3.810010175715656 0 -1 0
2159 720 2 0.4238 14.437650354217515 31.092937024874917 2.240862471606361 0 -1 0
847 283 1 -0.8476 11.264916150361023 3.2907591165374668 1.9260176207827746 0 1 0
848 283 2 0.4238 12.240702651856283 3.0871837906237043 2.0060039867320194 0 1 0
516 172 2 0.4238 14.815224655940694 2.137685338569917 2.3867672716321846 0 0 0
782 261 2 0.4238 21.89063741092177 4.199134419405325 3.5831520164387216 -1 1 0
514 172 1 -0.8476 14.454733699477359 3.0703838270333783 2.3977117949270244 0 0 0
2319 773 2 0.4238 15.322345240112343 4.300518024015216 30.977802364792797 -1 0 0
2317 773 1 -0.8476 16.056384668990873 4.59983450023938 0.422948883174759 -1 0 1
515 172 2 0.4238 15.029416765792071 3.6565662288026695 1.826634223516669 0 0 0
2329 777 1 -0.8476 19.681540773978472 4.9510883162062065 5.157167650172011 0 1 0
2331 777 2 0.4238 18.954693578385168 4.343909336784091 5.478145614107418 0 1 0
456 152 2 0.4238 14.381833504982648 2.6409225076597336 30.188713439941047 0 1 -1
2994 998 2 0.4238 15.245065423297145 2.804528405921951 4.015882566038094 0 1 0
454 152 1 -0.8476 13.920279971415713 3.506013892917193 30.38514502817208 0 1 -1
320 107 2 0.4238 11.5668767094407 6.421031839011416 5.261461335115078 0 0 0
1233 411 2 0.4238 16.60319701862662 4.006046446999116 5.758379479328245 -1 0 0
1231 411 1 -0.8476 16.9783989305248 4.706247023124053 6.365786422362209 -1 0 0
1232 411 2 0.4238 16.566356964262436 5.59121948317856 6.14888670471451 -1 0 0
2404 802 1 -0.8476 17.4321831327022 1.3323394741216894 2.955688790516858 0 0 1
2406 802 2 0.4238 16.706325650366512 0.6554593742362044 2.833360100254965 0 0 1
2978 993 2 0.4238 18.04042158876101 4.456550209465561 7.70013573974381 -1 1 1
455 152 2 0.4238 12.943994072521733 3.4150312695125664 30.188706448012336 0 1 -1
781 261 1 -0.8476 21.65074697967804 3.5033671024961994 4.260175295874839 -1 1 0
783 261 2 0.4238 21.588372015405415 2.6109580250113638 3.8132788104928874 -1 1 0
2330 777 2 0.4238 20.455018024791197 4.404491078736164 4.836286592205352 0 1 0
140 47 2 0.4238 23.549721674313364 3.4579235865888656 4.915326358335039 0 0 0
2185 729 1 -0.8476 20.378373989139536 4.984746712430388 0.8880643572883538 0 0 1
2186 729 2 0.4238 21.339703730198238 5.076537159190753 1.147717743880791 0 0 1
1548 516 2 0.4238 23.13764103002737 3.409153025049024 1.4783107909550603 0 0 1
266 89 2 0.4238 20.717828361903017 1.3917556038788936 30.82948431541905 0 1 -1
1498 500 1 -0.8476 25.986349106821212 1.1468531259314463 5.919404096167793 0 1 0
1499 500 2 0.4238 25.527466173992863 2.01404723120366 5.726010509089002 0 1 0
1937 646 2 0.4238 21.701870099197063 7.281474928475573 4.627776894546539 0 0 1
2187 729 2 0.4238 19.822572299504426 5.603273368731942 1.4435005244435146 0 0 1
139 47 1 -0.8476 24.412350971892756 3.5808529382307595 5.405998687583934 0 0 0
2742 914 2 0.4238 22.626681604560034 6.086371889424419 2.4283458758837604 -1 0 1
2740 914 1 -0.8476 22.822756019254772 5.333715574154781 1.7998048667875133 -1 0 1
576 192 2 0.4238 22.36359234862838 1.347991557845299 2.7615644100147083 -1 1 0
574 192 1 -0.8476 21.49425294000247 1.15643864838795 3.217148391057457 -1 1 0
575 192 2 0.4238 20.78559275165812 0.9975779198815162 2.5297153374792107 -1 1 0
728 243 2 0.4238 21.14836185990414 3.4053173001110415 6.04556071051481 0 0 0
141 47 2 0.4238 24.231878893400182 3.9917774110297732 6.299626972720569 0 0 0
873 291 2 0.4238 23.653177508503965 29.863130903612912 4.394975718735871 -1 0 0
871 291 1 -0.8476 24.366212178414013 29.38298517476044 3.8840533106845174 -1 0 0
2813 938 2 0.4238 23.282508400453302 1.0003603574760023 5.477860053041896 0 1 1
1547 516 2 0.4238 22.811455231090534 2.00651093407614 0.7083599918673725 0 0 1
1546 516 1 -0.8476 23.317131587571865 2.4255205016616643 1.4624968448322397 0 0 1
1500 500 2 0.4238 25.374223734176816 0.5557138112741375 6.444625071251257 0 1 0
1305 435 2 0.4238 25.625957808484248 5.729375063797653 4.886352789336749 0 0 0
1355 452 2 0.4238 25.79502471858668 3.7795494556380445 4.313799326199076 -1 0 0
1354 452 1 -0.8476 26.474069425114596 4.085021616618984 3.646277628294169 -1 0 0
389 130 2 0.4238 28.254611216842104 7.863033122128299 1.332486844085513 0 0 0
2081 694 2 0.4238 26.894669132847344 0.4131002963048996 4.634270684774012 -1 1 1
1065 355 2 0.4238 30.296803497867874 3.661790208320347 30.80791829133445 -1 0 -1
2640 880 2 0.4238 29.323892197928515 2.3965405514770968 1.1958959842909025 -1 1 1
2638 880 1 -0.8476 29.061755119893995 3.325257782679109 0.933658599488689 -1 1 1
2080 694 1 -0.8476 27.47818635199962 30.995125208740514 4.06831991195466 -1 0 1
957 319 2 0.4238 29.244205567379005 0.44624349384410666 3.635778095180088 0 0 0
2082 694 2 0.4238 27.30285661392451 30.03510716006621 4.286551854754034 -1 0 1
2199 733 2 0.4238 29.5025383528148 4.706280464830898 4.197990176432965 -1 0 1
2197 733 1 -0.8476 28.897134537285098 4.9156803756355325 3.4301112573699015 -1 0 1
2708 903 2 0.4238 29.48311769277555 -0.03428652671066246 1.6440970092780953 -1 0 1
963 321 2 0.4238 26.042485331281075 0.18370398322270184 0.15538296693158232 -1 0 0
955 319 1 -0.8476 30.08871960117177 0.5578681428878984 3.112007075184129 0 0 0
956 319 2 0.4238 30.851735540018556 0.7141541404445048 3.7392082944229625 0 0 0
474 158 2 0.4238 29.14987407188738 3.6109417255105307 7.150062980985236 0 1 0
472 158 1 -0.8476 29.559103349651735 4.171629902365239 6.430229528162947 0 1 0
473 158 2 0.4238 30.52514577231879 3.9331976297413 6.330669694488497 0 1 0
2776 926 1 -0.8476 1.6524641291526947 8.086205066245325 2.8237064377859253 0 0 1
1787 596 2 0.4238 3.3746996430397966 8.320052170203018 2.4094816387732343 0 1 1
1786 596 1 -0.8476 4.369079825058395 8.38542873517681 2.3262091556738467 0 1 1
1788 596 2 0.4238 4.686725167960203 7.752765281067302 1.6199240595214608 0 1 1
731 244 2 0.4238 1.617780615306861 7.348885827410358 29.483292670535256 1 0 -1
732 244 2 0.4238 1.4775431620184742 7.679856862584882 31.076220203832737 1 0 -1
730 244 1 -0.8476 1.8217288817133104 8.016177291884942 30.199621756011126 1 0 -1
2778 926 2 0.4238 1.4866016685094998 8.821778947060018 3.4805329143718624 0 0 1
2539 847 1 -0.8476 0.5376189777482508 12.326959989089962 2.3378665864517587 1 0 1
2541 847 2 0.4238 1.454430740264773 12.042807569011297 2.618426406353431 1 0 1
1650 550 2 0.4238 2.8537218926245163 10.94105369376221 3.81072678651811 1 0 1
1648 550 1 -0.8476 2.929126925276401 11.254003837943648 2.8639552717905574 1 0 1
1649 550 2 0.4238 3.6244952440042986 11.970152615626802 2.804004142513769 1 0 1
2279 760 2 0.4238 30.78790004772495 11.858510471207536 3.9996260388843057 0 0 1
250 84 1 -0.8476 5.609131098071545 6.788710991002003 0.29498448108223785 0 1 0
252 84 2 0.4238 5.19736576249905 5.882701827049897 0.3929531300611678 0 1 0
7 3 1 -0.8476 1.9753835337846508 10.32524506608314 0.4137444269128028 0 0 0
9 3 2 0.4238 1.730428875750011 9.37616310256386 0.21565215938106794 0 0 0
8 3 2 0.4238 1.9128881755609743 10.487013011170673 1.3985923820647943 0 0 0
2624 875 2 0.4238 3.7104506922909946 10.453736415152107 30.98427734506603 0 0 0
2625 875 2 0.4238 5.317068918081929 10.161823978638862 30.99811192015412 0 0 0
2418 806 2 0.4238 5.058486364797665 9.990501746101627 6.66398928898505 0 0 1
2999 1000 2 0.4238 1.8995922184613847 6.829824174085721 5.350806284900401 1 0 0
2623 875 1 -0.8476 4.535350554606711 10.399615584921795 30.42159505815757 0 0 0
2560 854 1 -0.8476 11.281411583936485 5.829393971482849 0.9308079207833666 0 0 1
554 185 2 0.4238 4.765114870071875 8.350691199623414 3.9876463767811376 0 1 0
553 185 1 -0.8476 4.928471862498133 8.405670747074634 4.972680536542811 0 1 0
1298 433 2 0.4238 8.095968312407956 7.932140381071635 30.49199036595442 0 0 -1
1806 602 2 0.4238 8.995652909616483 6.108300981233007 31.07287971342806 0 0 -1
995 332 2 0.4238 7.352038056553125 10.757208265911261 5.371420039043482 0 0 0
982 328 1 -0.8476 6.466296366673429 10.302346245444985 1.1906873027454192 1 0 0
994 332 1 -0.8476 6.928917328421758 10.225331297957942 4.63788253126962 0 0 0
2885 962 2 0.4238 8.048954728809676 9.140377167397466 1.8662617091781806 0 1 1
2884 962 1 -0.8476 8.577920957433141 9.082849637756802 2.7129525009371265 0 1 1
2886 962 2 0.4238 7.982888013935659 9.281058374808207 3.4918293769955886 0 1 1
996 332 2 0.4238 6.02965356003666 9.904300367628524 4.934979552280078 0 0 0
251 84 2 0.4238 6.577943148809877 6.742621086697641 0.5384581607373067 0 1 0
984 328 2 0.4238 5.82941856064852 9.858858649477998 1.8213262754704698 1 0 0
1510 504 1 -0.8476 10.362392198742848 10.909685108785865 3.485068978792015 0 0 0
1299 433 2 0.4238 7.389398597436868 9.313493569154062 31.001155464546844 0 0 -1
1297 433 1 -0.8476 7.88697022550228 8.87964838092018 30.25002233407521 0 0 -1
319 107 1 -0.8476 10.818876063541765 6.785472663180057 4.706773806004722 0 0 0
1511 504 2 0.4238 9.679195477824763 10.230696482490352 3.21633677690275 0 0 0
983 328 2 0.4238 6.774911706019379 11.168796572806299 1.583141739497518 1 0 0
321 107 2 0.4238 10.055222941467344 7.0374324038542975 5.301206577710976 0 0 0
1086 362 2 0.4238 15.412489673764533 6.977953930608455 2.377172632202477 0 0 0
2688 896 2 0.4238 11.393618060642806 8.774182302809665 2.360880800419157 0 1 1
2686 896 1 -0.8476 11.968867681879846 7.996408930820979 2.6141721468794223 0 1 1
2687 896 2 0.4238 11.583265917229276 7.544664988990524 3.418683931522515 0 1 1
1085 362 2 0.4238 15.941818559168615 8.356362879561097 3.074615148106144 0 0 0
1084 362 1 -0.8476 15.935310793508059 7.358520544769615 3.139948597768153 0 0 0
1177 393 1 -0.8476 12.40113056311992 10.945089518158278 0.22386516081073893 0 1 0
1178 393 2 0.4238 11.745494117902517 10.191998950168738 0.16913168771808682 0 1 0
1179 393 2 0.4238 12.626268470797566 11.258722648737992 30.465837435204936 0 1 -1
979 327 1 -0.8476 14.997765170686376 9.99596051611246 3.5455283458039424 0 0 0
981 327 2 0.4238 15.375540675666974 10.727962125197298 4.112502294768994 0 0 0
980 327 2 0.4238 14.068816438138713 9.784608540928957 3.8494772538574407 0 0 0
437 146 2 0.4238 15.85203257646683 7.050513220236983 4.817381007046082 0 0 0
438 146 2 0.4238 15.717517592664331 7.849408873510986 6.235230795058921 0 0 0
436 146 1 -0.8476 15.58204681291083 6.970982822602172 5.776955580241156 0 0 0
2515 839 1 -0.8476 15.390039612040145 10.86130772361629 0.9665125215144962 0 0 1
46 16 1 -0.8476 17.720068834772874 9.743686516384102 0.15083351150553992 0 0 0
48 16 2 0.4238 18.274459654574706 10.249587331616647 30.654429542797537 0 0 -1
2517 839 2 0.4238 14.448506818344004 11.054173205265263 0.6902536569852254 0 0 1
47 16 2 0.4238 16.866585542966174 10.237518381921573 0.3172566069372844 0 0 0
489 163 2 0.4238 17.654588693347534 6.617370045783642 3.1529202531165996 0 0 0
488 163 2 0.4238 18.86160801487902 5.828535209936795 3.9193864959952527 0 0 0
487 163 1 -0.8476 18.641929612545965 6.460467420368418 3.176148221235653 0 0 0
468 156 2 0.4238 25.467897108990464 8.352220603677502 3.7604553808978913 0 0 0
467 156 2 0.4238 24.570223382534202 9.587940516840062 3.1826974307264218 0 0 0
466 156 1 -0.8476 25.41573737730174 9.345642214924476 3.6585098093906128 0 0 0
1936 646 1 -0.8476 22.433230095235587 7.132011654314594 3.9623647096954877 0 0 1
1938 646 2 0.4238 22.602791899080206 7.978501481247833 3.4576829454158844 0 0 1
113 38 2 0.4238 17.983259770795645 13.271239394233998 3.203519932589899 0 0 0
949 317 1 -0.8476 18.638453988756208 11.993235245732386 4.004668040811849 0 0 0
2835 945 2 0.4238 23.845780242948706 10.3293701387577 0.7224055359510372 0 0 1
2465 822 2 0.4238 21.72700546840807 10.708642570693032 4.658777335427799 0 0 1
2464 822 1 -0.8476 22.138092832013257 11.327548970748165 5.3280773514299264 0 0 1
2117 706 2 0.4238 19.412785800209807 7.774942261342042 1.7581372216130324 0 0 1
2116 706 1 -0.8476 20.19455823785842 8.392119159468562 1.6691173093668952 0 0 1
82 28 1 -0.8476 25.309618264967863 11.277293297513122 6.144428138256672 0 0 0
84 28 2 0.4238 25.604151243480835 10.509767264108461 5.575082686295027 0 0 0
2956 986 1 -0.8476 20.73034474955867 9.53501995198783 3.95509476357994 0 1 1
2957 986 2 0.4238 20.387217352692847 9.070706391702927 3.1385915250560488 0 1 1
2958 986 2 0.4238 20.397117255481238 9.063427672256658 4.771526242619954 0 1 1
2833 945 1 -0.8476 23.992295183009347 9.448301881058493 1.1721300483773178 0 0 1
2834 945 2 0.4238 24.95562257995029 9.359421536586478 1.425311013546523 0 0 1
83 28 2 0.4238 25.59651510549715 12.136258771459243 5.720318877552514 0 0 0
951 317 2 0.4238 19.001606474418573 11.169479476054615 3.5692984677596375 0 0 0
450 150 2 0.4238 21.15173942245942 7.122833126051286 6.596837316160544 0 0 0
449 150 2 0.4238 19.785702746282 6.905047946474514 5.729000915024981 0 0 0
448 150 1 -0.8476 20.520448772078502 7.547175873476251 5.947679336822895 0 0 0
2471 824 2 0.4238 21.040702678712925 9.132374979121831 6.99736048472563 -1 0 1
1585 529 1 -0.8476 16.50990721544016 9.12828909531742 6.893862846172004 0 0 0
1587 529 2 0.4238 16.977609506286722 9.35724905597498 7.747579526788603 0 0 0
1586 529 2 0.4238 16.40556051333057 9.953800796786666 6.339207231928448 0 0 0
542 181 2 0.4238 27.06606514785371 10.368977945860397 3.618172171452074 -1 1 0
1356 452 2 0.4238 26.037285481334386 4.196518033852435 2.7536475924921016 -1 0 0
541 181 1 -0.8476 28.015798335059472 10.678183048326973 3.667155682938417 -1 1 0
388 130 1 -0.8476 27.53890167762794 8.030893711380182 0.6545613378912171 0 0 0
390 130 2 0.4238 27.354676375801436 9.012283751685585 0.600389098346263 0 0 0
2142 714 2 0.4238 30.087194631961935 7.77815425976184 2.6740030089971696 0 0 1
2140 714 1 -0.8476 29.4705878211218 7.125894163651251 2.233148372267484 0 0 1
294 98 2 0.4238 29.276026568904197 10.179292953489265 2.484377931389886 0 1 0
293 98 2 0.4238 30.493083777505067 10.947007846566784 1.7123597551018903 0 1 0
2141 714 2 0.4238 29.406796311726463 6.298274912930952 2.7908018555935428 0 0 1
292 98 1 -0.8476 29.818892100489307 10.211513379826323 1.6451765115716064 0 1 0
2850 950 2 0.4238 26.1265961029511 10.367895085415197 30.363234566630602 0 0 0
543 181 2 0.4238 28.06616612839355 11.515106607233951 4.212153332957749 -1 1 0
2383 795 1 -0.8476 26.75522247829293 10.623762638926518 0.6274563941770783 0 1 1
2384 795 2 0.4238 26.610904178074122 11.532806499440031 0.23654446386988723 0 1 1
2385 795 2 0.4238 27.38953658706896 10.689056219391988 1.3977695907183465 0 1 1
2198 733 2 0.4238 27.974762481704378 4.587394713729383 3.633726253153578 -1 0 1
650 217 2 0.4238 26.863603463138656 10.74099530209434 8.660675436576764 0 0 0
1344 448 2 0.4238 27.626667802492477 13.350675174411512 5.806779210267555 0 0 0
1295 432 2 0.4238 29.46490968390895 11.015193041676275 29.736660163830653 -1 0 0
1342 448 1 -0.8476 27.233679614383338 12.928093075438834 4.9900876484111745 0 0 0
1343 448 2 0.4238 27.192395868640556 13.602489788823162 4.252873236430203 0 0 0
2540 847 2 0.4238 0.5774174809893479 13.249582615632868 1.9542213967930437 1 0 1
1251 417 2 0.4238 4.10878645603616 14.096587123631334 5.5568656494389375 0 0 0
1249 417 1 -0.8476 3.8774743237072067 14.626027834437979 4.740662200299314 0 0 0
2611 871 1 -0.8476 1.4549814829270535 15.822594688229557 4.456072716753147 0 0 1
2612 871 2 0.4238 1.2908364124805982 16.60805299113755 5.052823818973247 0 0 1
835 279 1 -0.8476 4.724560122952685 17.309774429787087 4.03327336097547 1 0 0
836 279 2 0.4238 4.747146302845144 16.329927696033828 4.231743223104764 1 0 0
2613 871 2 0.4238 2.404260999872952 15.523325766248657 4.552544791944846 0 0 1
2364 788 2 0.4238 1.6774580090016853 14.749613406398645 1.199693336223607 1 0 1
1250 417 2 0.4238 3.9922592359017517 14.053844545138736 3.928608516964006 0 0 0
1537 513 1 -0.8476 4.572803265754517 13.270966015142939 2.5597741830301497 0 0 1
1538 513 2 0.4238 5.538057898358412 13.23681233483865 2.300701852029624 0 0 1
1539 513 2 0.4238 4.028605395681573 13.576588546969676 1.7784644906853078 0 0 1
92 31 2 0.4238 4.7479177980273315 17.789945759352992 5.717035217371645 0 0 0
1394 465 2 0.4238 4.419005084993055 19.88193489929747 2.59327031101118 0 0 0
1103 368 2 0.4238 3.000433334314034 13.46861608518076 30.810828741711568 1 0 -1
2362 788 1 -0.8476 0.9348089369209325 15.014060517037409 1.8149495449695636 1 0 1
2363 788 2 0.4238 1.3123123996898103 15.253397123521301 2.70949374653074 1 0 1
1666 556 1 -0.8476 1.1541636916748683 18.402809235502374 6.0889655765483255 0 0 0
1102 368 1 -0.8476 3.3964296138810743 14.116663170629918 0.2969436749092804 1 0 0
1104 368 2 0.4238 3.7674051906192076 14.901934879636778 30.965676775388935 1 0 -1
1512 504 2 0.4238 9.972751664401745 11.826636939486969 3.399163309428185 0 0 0
837 279 2 0.4238 4.465519407548146 17.45041920330392 3.0777018269087986 1 0 0
2890 964 1 -0.8476 7.082295877541925 13.200085933048125 1.5501405282537484 0 0 1
2891 964 2 0.4238 7.884663897751951 13.117130592463873 2.141177037924612 0 0 1
621 207 2 0.4238 7.313384733563305 13.655552918455284 6.236163003095032 0 -1 0
1062 354 2 0.4238 8.465407730190766 13.79518555347371 4.025437216783777 0 0 0
1060 354 1 -0.8476 9.247988971374093 13.493519002736088 3.480860436892639 0 0 0
1061 354 2 0.4238 9.930765891995076 14.223300676251581 3.4457220000212945 0 0 0
620 207 2 0.4238 6.250510197360837 13.078456455906823 5.138946510803747 0 -1 0
619 207 1 -0.8476 7.07198082561989 13.634380486418928 5.265968860245981 0 -1 0
2910 970 2 0.4238 9.224937193426651 16.105892792308588 6.078520063017567 1 0 1
2909 970 2 0.4238 10.351827455637425 15.786629014260233 4.940620477971368 1 0 1
2908 970 1 -0.8476 10.188024992784324 15.88688287591408 5.922006210700213 1 0 1
314 105 2 0.4238 8.074263147415177 17.414877043099345 1.4978728726747483 0 -1 0
313 105 1 -0.8476 7.451519046147859 17.689693714358967 2.230447835472907 0 -1 0
1306 436 1 -0.8476 7.782381805498536 16.59972271423814 4.799985697956761 0 0 0
1308 436 2 0.4238 7.487482003953292 15.644721891008817 4.831727751367097 0 0 0
486 162 2 0.4238 9.799938025154349 11.310876464826059 5.583243342682198 -1 0 0
485 162 2 0.4238 9.891638735578747 10.706892669014492 7.09764786073291 -1 0 0
2443 815 1 -0.8476 11.142356609379176 15.165741748188045 2.874923866104886 0 0 1
2444 815 2 0.4238 10.94636788083126 15.905815114344572 2.2315889118620285 0 0 1
315 105 2 0.4238 7.5646883456268315 17.076016071204048 3.0118521589170095 0 -1 0
2892 964 2 0.4238 7.377443694305916 13.314107941756431 0.6015166059538293 0 0 1
57 19 2 0.4238 11.160467570102236 18.530730724824085 5.482188527463588 0 -1 0
1307 436 2 0.4238 7.4331193131128845 17.083269384193855 5.602605372727872 0 0 0
2581 861 1 -0.8476 11.593715188354523 18.686281797328498 0.6049004910341728 -1 0 1
1931 644 2 0.4238 10.068851262449266 17.410806846997566 0.7806180709254757 0 0 0
1930 644 1 -0.8476 9.393275852876243 16.673517032605336 0.7819248837911537 0 0 0
1932 644 2 0.4238 9.761746658586947 15.882943050184645 0.29282150244962135 0 0 0
112 38 1 -0.8476 17.487747779389192 13.826238712031964 2.535355162318347 0 0 0
2264 755 2 0.4238 13.77713385426281 13.539234139047135 4.400044941929791 0 0 0
2263 755 1 -0.8476 13.169176605660995 13.063041313438866 5.035362625532957 0 0 0
2445 815 2 0.4238 11.74450192433986 14.496446516372563 2.439648111234777 0 0 1
484 162 1 -0.8476 9.270235940222966 10.967009246503029 6.35859563875885 -1 0 0
2921 974 2 0.4238 14.015865657811293 17.32918863874044 4.203187795848978 0 0 1
2920 974 1 -0.8476 14.56840330081785 16.99557959569258 3.439376697761255 0 0 1
2922 974 2 0.4238 14.43593931034493 16.009608916622568 3.3378127335523176 0 0 1
2829 943 2 0.4238 15.471638651728751 19.24103133986178 4.5609167363728655 0 0 1
2828 943 2 0.4238 15.687926891305766 18.81597556209746 2.999131417153235 0 0 1
2827 943 1 -0.8476 15.656775672144136 19.5832356749816 3.639710645823202 0 0 1
2273 758 2 0.4238 16.38257125895752 16.622591901377728 2.852443064583674 0 0 1
2272 758 1 -0.8476 17.337356343742698 16.381576363462244 2.6783823592953637 0 0 1
1509 503 2 0.4238 14.331997302262284 13.78222842195935 2.3232816924450925 0 0 0
1965 655 2 0.4238 14.014142341667068 16.638736521996652 30.619301473709516 0 0 -1
1963 655 1 -0.8476 13.352314633098365 16.506606075800104 0.19278092646194228 0 0 0
2274 758 2 0.4238 17.397644435671776 15.41367881935696 2.4343734257596545 0 0 1
2265 755 2 0.4238 13.210933188882159 12.079000536744559 4.862388125042848 0 0 0
264 88 2 0.4238 13.748155968830067 17.022722338361945 6.321369884724992 0 0 0
1507 503 1 -0.8476 14.77992345559561 14.14492284905684 3.1404811887489346 0 0 0
2516 839 2 0.4238 15.406833429545134 10.595879823934576 1.930497074033909 0 0 1
2582 861 2 0.4238 12.458752896731692 18.1847301386891 0.6173863870739141 -1 0 1
1964 655 2 0.4238 13.047366095330645 15.5542680838387 0.20044702024345434 0 0 0
1508 503 2 0.4238 15.770873313744664 14.047025767678935 3.0486400220822127 0 0 0
950 317 2 0.4238 19.332312614813606 12.38410062414445 4.609469288016569 0 0 0
2866 956 1 -0.8476 22.645277961735044 11.609607350049911 30.78013892596695 0 1 0
2466 822 2 0.4238 22.504172745129395 12.130894041305188 4.858372898988505 0 0 1
1369 457 1 -0.8476 18.552132565536734 17.118228256111365 5.0992221684436 0 0 0
1371 457 2 0.4238 19.262452692083432 17.776856286675386 4.850918337014619 0 0 0
1089 363 2 0.4238 19.06290689431032 18.911167923795343 1.3407136576034935 0 0 0
1087 363 1 -0.8476 18.994758256161717 18.0010633506825 0.9319767488589854 0 0 0
2876 959 2 0.4238 23.008631293807582 14.57032215439215 4.7305042244155935 0 0 1
2875 959 1 -0.8476 22.22882383856161 14.094093116939574 4.324171334227022 0 0 1
2877 959 2 0.4238 22.258243605196736 14.194560489793398 3.329665919104175 0 0 1
1345 449 1 -0.8476 22.866913521041795 18.57930967384501 4.321233190892393 0 0 0
1346 449 2 0.4238 23.027231546041897 17.593661837156528 4.374116019995357 0 0 0
1467 489 2 0.4238 20.988524741631505 12.774034201493507 6.127252099980041 0 0 0
1370 457 2 0.4238 18.03739112524176 16.859183516304586 4.281947810406006 0 0 0
1088 363 2 0.4238 18.578409044819804 17.37142932303313 1.5878843700780598 0 0 0
1029 343 2 0.4238 23.9670603200275 15.942503727366164 5.987198204083006 -1 0 0
1027 343 1 -0.8476 24.093775202251102 16.184136172768067 5.025139393982796 -1 0 0
1028 343 2 0.4238 24.84291403694702 16.84136441904328 4.942422535203095 -1 0 0
1347 449 2 0.4238 23.478408848376613 18.980341255963417 3.6391428092368936 0 0 0
2940 980 2 0.4238 18.17564922322848 16.922519113272642 29.281669762532793 0 0 0
195 65 2 0.4238 22.1050341332717 14.386450784155038 1.1889271828141306 0 0 0
193 65 1 -0.8476 22.575089232923663 13.58774367260603 1.564580855357918 0 0 0
194 65 2 0.4238 22.447858513056147 12.807513967143981 0.9521642129193776 0 0 0
2125 709 1 -0.8476 25.05950614760388 14.84575749593834 1.7401589132061273 0 -1 1
2127 709 2 0.4238 24.795743178916187 15.739808895141053 1.3780792265046329 0 -1 1
2126 709 2 0.4238 24.296323579184246 14.207340580659572 1.6402765761003557 0 -1 1
1628 543 2 0.4238 30.438637230356214 15.238294688612099 1.6723955362620373 -1 0 0
1627 543 1 -0.8476 29.495805359839764 15.240835839615219 1.3391352844171645 -1 0 0
445 149 1 -0.8476 27.01210947332533 17.37580885345359 4.657861132220445 0 0 0
447 149 2 0.4238 27.124469247989868 16.516899408550472 4.158211228886456 0 0 0
616 206 1 -0.8476 27.654823386936982 14.40162129147246 7.31082644254886 0 0 0
1629 543 2 0.4238 29.409900296787278 14.599000142182708 0.5771195594668436 -1 0 0
2393 798 2 0.4238 28.534852920007168 18.661680219206396 2.284434928552148 0 0 1
1275 425 2 0.4238 30.81698186182358 15.073364429586157 4.922968449892609 -1 0 0
200 67 2 0.4238 28.126010980182766 14.700286866675123 2.3045164963144003 0 0 0
1273 425 1 -0.8476 29.952168139528656 14.74100694051231 5.2993137640502885 -1 0 0
1274 425 2 0.4238 29.209162167411282 15.345010480506662 5.011005371339905 -1 0 0
199 67 1 -0.8476 27.419329355016384 14.897706662295741 2.9839476493298402 0 0 0
201 67 2 0.4238 26.520526164630446 14.875362933160476 2.5461643177431226 0 0 0
2394 798 2 0.4238 27.79908726813762 18.418547514626884 3.7218499452889446 0 0 1
351 117 2 0.4238 25.727937739650297 17.17436796419105 29.770486007928437 0 0 -1
824 275 2 0.4238 27.98182137842382 17.637851379859836 31.090905241548814 -1 0 -1
823 275 1 -0.8476 28.773783423137345 17.74286549193217 0.5279367915788765 -1 0 0
2392 798 1 -0.8476 28.393966640746132 19.032101514257196 3.202552079559902 0 0 1
825 275 2 0.4238 29.007375812267107 16.857172893718925 0.9291641746720457 -1 0 0
1393 465 1 -0.8476 4.166266692093035 20.27757914893252 3.4762140817507756 0 0 0
1395 465 2 0.4238 3.840161350264019 19.554024286886957 4.084592239377844 0 0 0
2585 862 2 0.4238 1.0203570408196017 22.076094556202882 5.474544406266751 0 0 1
1191 397 2 0.4238 4.5977847066837505 25.699098588877554 3.4701262225620497 0 0 0
1189 397 1 -0.8476 4.025355575623981 24.903481627925878 3.66841670186752 0 0 0
1190 397 2 0.4238 3.1882251377495674 24.951029783591316 3.1234832149028513 0 0 0
1773 591 2 0.4238 1.4278993612757642 24.751708333884988 6.716583487689848 0 0 0
24 8 2 0.4238 8.369287615006039 23.64344926974582 7.117271778703338 0 -1 0
1772 591 2 0.4238 2.51528434702906 23.610124140797865 7.142031402547341 0 0 0
1771 591 1 -0.8476 1.6519764192771844 24.04876813878409 7.3916129209636035 0 0 0
22 8 1 -0.8476 7.4927154005957295 23.85826051774563 7.547942674387254 0 -1 0
2391 797 2 0.4238 4.496811119542975 20.062946990105527 6.741211845184834 0 0 1
2389 797 1 -0.8476 4.834032323898262 21.000231088420264 6.653004960120932 0 0 1
2816 939 2 0.4238 31.011220486693237 25.12264464373844 5.118453980066447 0 0 1
2823 941 2 0.4238 2.6394696228255534 21.573442736162278 4.123175685225411 0 0 1
2821 941 1 -0.8476 2.605957369664926 22.470640080703827 4.563532251232002 0 0 1
2822 941 2 0.4238 3.5047172775031097 22.90500194599523 4.503863093750197 0 0 1
1025 342 2 0.4238 4.937257900405641 22.018755810261077 2.7776127947612976 0 0 0
1141 381 1 -0.8476 4.919781839076034 18.85809065871892 1.385680637513927 -1 0 1