LAMMPS (29 Sep 2021 - Update 3)
# PREREQUISITES:
#
#     You must use moltemplate.sh to create 3 files:
#        system.data  system.in.init  system.in.settings
#     (See README_setup.sh for details.)

# ------------------------------- Initialization Section --------------------

include      "system.in.init"        # specify the style of force field used
        units real
        atom_style full
        pair_style lj/charmm/coul/long 9.0 10.0
        bond_style harmonic
        angle_style harmonic
        kspace_style pppm 0.0001

# ------------------------------- Atom Definition Section -------------------

read_data    "system.data"           # specify atom coordinates and topology
Reading data file ...
  orthogonal box = (0.0000000 0.0000000 0.0000000) to (31.034200 31.034200 31.034200)
  1 by 1 by 1 MPI processor grid
  reading atoms ...
  24 atoms
  scanning bonds ...
  2 = max bonds/atom
  scanning angles ...
  1 = max angles/atom
  reading bonds ...
  16 bonds
  reading angles ...
  8 angles
Finding 1-2 1-3 1-4 neighbors ...
  special bond factors lj:    0        0        0       
  special bond factors coul:  0        0        0       
     2 = max # of 1-2 neighbors
     1 = max # of 1-3 neighbors
     1 = max # of 1-4 neighbors
     2 = max # of special neighbors
  special bonds CPU = 0.000 seconds
  read_data CPU = 0.009 seconds

# ------------------------------- Settings Section --------------------------

include      "system.in.settings"    # load the force field parameters
        bond_coeff 1 600.0 1.0
        angle_coeff 1 75.0 109.47
        pair_coeff 1 1 0.1553 3.166
        pair_coeff 2 2 0.0 0.0
        group spce type 1 2
24 atoms in group spce

# ------------------------------- Run Section -------------------------------


# -- minimization protocol --


# Note: The minimization step is not necessary in this example.  However
#       in general, it's always a good idea to minimize the system beforehand.
minimize 1.0e-3 1.0e-5 100000 400000
WARNING: Using 'neigh_modify every 1 delay 0 check yes' setting during minimization (../min.cpp:188)
PPPM initialization ...
  using 12-bit tables for long-range coulomb (../kspace.cpp:340)
  G vector (1/distance) = 0.22128631
  grid = 10 10 10
  stencil order = 5
  estimated absolute RMS force accuracy = 0.022585296
  estimated relative force accuracy = 6.8014947e-05
  using double precision FFTW3
  3d grid and FFT values/proc = 3375 1000
Neighbor list info ...
  update every 1 steps, delay 0 steps, check yes
  max neighbors/atom: 2000, page size: 100000
  master list distance cutoff = 12
  ghost atom cutoff = 12
  binsize = 6, bins = 6 6 6
  1 neighbor lists, perpetual/occasional/extra = 1 0 0
  (1) pair lj/charmm/coul/long, perpetual
      attributes: half, newton on
      pair build: half/bin/newton
      stencil: half/bin/3d
      bin: standard
Per MPI rank memory allocation (min/avg/max) = 8.293 | 8.293 | 8.293 Mbytes
Step Temp E_pair E_mol TotEng Press 
       0            0    23.303519 5.2372056e-12    23.303519    62.440482 
      43            0   -10.236476    1.7499244   -8.4865512   -40.035233 
Loop time of 0.006068 on 1 procs for 43 steps with 24 atoms

99.1% CPU use with 1 MPI tasks x no OpenMP threads

Minimization stats:
  Stopping criterion = energy tolerance
  Energy initial, next-to-last, final = 
      23.3035193938437  -8.48587557409331  -8.48655120320257
  Force two-norm initial, final = 46.454119 47.924542
  Force max component initial, final = 14.059850 19.731322
  Final line search alpha, max atom move = 0.00025125138 0.0049575220
  Iterations, force evaluations = 43 125

MPI task timing breakdown:
Section |  min time  |  avg time  |  max time  |%varavg| %total
---------------------------------------------------------------
Pair    | 0.000491   | 0.000491   | 0.000491   |   0.0 |  8.09
Bond    | 5.9e-05    | 5.9e-05    | 5.9e-05    |   0.0 |  0.97
Kspace  | 0.005377   | 0.005377   | 0.005377   |   0.0 | 88.61
Neigh   | 0          | 0          | 0          |   0.0 |  0.00
Comm    | 6.2e-05    | 6.2e-05    | 6.2e-05    |   0.0 |  1.02
Output  | 0          | 0          | 0          |   0.0 |  0.00
Modify  | 0          | 0          | 0          |   0.0 |  0.00
Other   |            | 7.9e-05    |            |       |  1.30

Nlocal:        24.0000 ave          24 max          24 min
Histogram: 1 0 0 0 0 0 0 0 0 0
Nghost:        168.000 ave         168 max         168 min
Histogram: 1 0 0 0 0 0 0 0 0 0
Neighs:        276.000 ave         276 max         276 min
Histogram: 1 0 0 0 0 0 0 0 0 0

Total # of neighbors = 276
Ave neighs/atom = 11.500000
Ave special neighs/atom = 2.0000000
Neighbor list builds = 0
Dangerous builds = 0

# -- simulation protocol --


timestep     1.0
dump         1 all custom 200 traj_npt.lammpstrj id mol type x y z ix iy iz
fix          fxnpt all npt temp 300.0 300.0 100.0 iso 1.0 1.0 1000.0 drag 1.0

include      "system.in.constraints" # apply constraints (after minimization
        group spce type 1 2
24 atoms in group spce
        fix fRattleSPCE spce rattle 0.0001 10 100 b 1 a 1
       0 = # of size 2 clusters
       0 = # of size 3 clusters
       0 = # of size 4 clusters
       8 = # of frozen angles
  find clusters CPU = 0.000 seconds
                                     # and after all integration fixes)

thermo       100

run          10000
PPPM initialization ...
  using 12-bit tables for long-range coulomb (../kspace.cpp:340)
  G vector (1/distance) = 0.22128631
  grid = 10 10 10
  stencil order = 5
  estimated absolute RMS force accuracy = 0.022585296
  estimated relative force accuracy = 6.8014947e-05
  using double precision FFTW3
  3d grid and FFT values/proc = 3375 1000
SHAKE stats (type/ave/delta/count) on step 43
     1   1.00403   0.0178965         24
     1   106.968   2.77605            8
Per MPI rank memory allocation (min/avg/max) = 8.418 | 8.418 | 8.418 Mbytes
Step Temp E_pair E_mol TotEng Press Volume 
      43            0   -10.236476            0   -10.236476    15.509173    29889.707 
SHAKE stats (type/ave/delta/count) on step 100
     1   0.999982  1.23105e-06       24
     1   109.470   4.50579e-05        8
     100    404.38426   -25.427855            0   -7.3469651   -30.404183    29883.946 
SHAKE stats (type/ave/delta/count) on step 200
     1   0.999963  3.43073e-06       24
     1   109.470   0.000416971        8
     200    444.48376   -32.053283            0   -12.179458    36.418235    29569.425 
SHAKE stats (type/ave/delta/count) on step 300
     1   0.999994  4.33508e-06       24
     1   109.470   0.000319030        8
     300    479.28407   -43.084142            0    -21.65432   -13.115377    29444.796 
SHAKE stats (type/ave/delta/count) on step 400
     1   0.999968  1.90663e-06       24
     1   109.470   6.73085e-05        8
     400     453.5797   -48.463184            0    -28.18266    18.573432    29160.931 
SHAKE stats (type/ave/delta/count) on step 500
     1   1.00001   1.16692e-06       24
     1   109.470   5.22723e-05        8
     500    436.69631   -53.287483            0   -33.761852    -39.19227    29290.015 
SHAKE stats (type/ave/delta/count) on step 600
     1   0.999996  1.29633e-06       24
     1   109.470   5.14182e-05        8
     600    255.47841   -50.172309            0    -38.74932    18.832077    29278.004 
SHAKE stats (type/ave/delta/count) on step 700
     1   1.00003   7.98084e-07       24
     1   109.470   4.58379e-05        8
     700    318.80785   -56.078154            0   -41.823569    1.4826765    29420.707 
SHAKE stats (type/ave/delta/count) on step 800
     1   0.999973  2.71226e-07       24
     1   109.470   2.42173e-05        8
     800    249.52565   -53.585819            0   -42.428991   -26.867359    29456.666 
SHAKE stats (type/ave/delta/count) on step 900
     1   1.00006   1.22192e-06       24
     1   109.470   5.36172e-05        8
     900    394.42089   -61.274424            0   -43.639018    35.885753    29450.903 
SHAKE stats (type/ave/delta/count) on step 1000
     1   0.999975  1.73848e-07       24
     1   109.470   8.72779e-06        8
    1000    258.07169     -57.1065            0    -45.56756   -43.608708    29801.495 
SHAKE stats (type/ave/delta/count) on step 1100
     1   1.00008   1.99745e-07       24
     1   109.470   1.08903e-05        8
    1100    274.21794   -58.189901            0   -45.929027    10.593327     29867.44 
SHAKE stats (type/ave/delta/count) on step 1200
     1   0.999994  4.20573e-07       24
     1   109.470   4.21691e-05        8
    1200     283.2528   -57.529357            0   -44.864515    5.8499661    30166.055 
SHAKE stats (type/ave/delta/count) on step 1300
     1   0.999989  5.90832e-07       24
     1   109.470   3.03825e-05        8
    1300    221.00245   -52.940565            0   -43.059071   -42.564701    30327.294 
SHAKE stats (type/ave/delta/count) on step 1400
     1   1.00001   3.65934e-07       24
     1   109.470   1.45207e-05        8
    1400    366.40259   -57.678651            0   -41.296003    27.771743    30047.879 
SHAKE stats (type/ave/delta/count) on step 1500
     1   0.999984  1.73010e-07       24
     1   109.470   1.90791e-05        8
    1500    273.00279   -53.068259            0   -40.861717   -22.365563    30207.302 
SHAKE stats (type/ave/delta/count) on step 1600
     1   0.999952  2.76161e-07       24
     1   109.470   1.75336e-05        8
    1600    366.85914   -57.831896            0   -41.428835   -7.6244999    29957.631 
SHAKE stats (type/ave/delta/count) on step 1700
     1   1.00001   2.58166e-07       24
     1   109.470   2.29230e-05        8
    1700    289.53002   -57.157297            0   -44.211788     9.019819    29752.115 
SHAKE stats (type/ave/delta/count) on step 1800
     1   0.999953  3.80916e-07       24
     1   109.470   1.45496e-05        8
    1800    261.44862   -55.679762            0   -43.989831   -15.813973    29599.069 
SHAKE stats (type/ave/delta/count) on step 1900
     1   0.999957  2.38840e-07       24
     1   109.470   2.10418e-05        8
    1900    402.31185   -60.959862            0   -42.971634   0.18517352    29140.522 
SHAKE stats (type/ave/delta/count) on step 2000
     1   1.00003   4.86464e-07       24
     1   109.470   2.15066e-05        8
    2000    319.87195   -59.695662            0   -45.393499    15.309865     29054.17 
SHAKE stats (type/ave/delta/count) on step 2100
     1   0.999959  1.34087e-07       24
     1   109.470   1.97808e-05        8
    2100    253.21784   -57.188587            0   -45.866673   -6.3769165    29080.738 
SHAKE stats (type/ave/delta/count) on step 2200
     1   1.00005   6.34877e-07       24
     1   109.470   9.80553e-05        8
    2200    265.42318   -56.630202            0   -44.762561   -9.4729151    29195.343 
SHAKE stats (type/ave/delta/count) on step 2300
     1   1.00002   3.99917e-07       24
     1   109.470   3.03155e-05        8
    2300    206.48054   -52.049485            0   -42.817296   -20.613909    29472.172 
SHAKE stats (type/ave/delta/count) on step 2400
     1   0.999959  3.08484e-07       24
     1   109.470   1.49455e-05        8
    2400    403.62321   -59.293852            0   -41.246991    38.621873     29193.18 
SHAKE stats (type/ave/delta/count) on step 2500
     1   0.999999  5.62495e-07       24
     1   109.470   0.000101628        8
    2500    341.20618   -60.025078            0   -44.769015   -36.594562    29288.045 
SHAKE stats (type/ave/delta/count) on step 2600
     1   1.00002   2.99578e-07       24
     1   109.470   1.03624e-05        8
    2600    281.34266    -58.98787            0   -46.408434    55.146082    29162.899 
SHAKE stats (type/ave/delta/count) on step 2700
     1   1.00001   2.16042e-07       24
     1   109.470   1.39277e-05        8
    2700    296.75635   -59.799091            0   -46.530476   0.19047232     29403.15 
SHAKE stats (type/ave/delta/count) on step 2800
     1   1.00003   7.95791e-07       24
     1   109.470   2.30760e-05        8
    2800    268.40489   -57.387268            0   -45.386308   -19.987647    29746.141 
SHAKE stats (type/ave/delta/count) on step 2900
     1   0.999973  1.08010e-06       24
     1   109.470   3.03733e-05        8
    2900    270.79803    -56.11594            0   -44.007978   -6.5354197    29728.528 
SHAKE stats (type/ave/delta/count) on step 3000
     1   1.00000   5.01469e-07       24
     1   109.470   1.52689e-05        8
    3000    314.62867   -56.769632            0   -42.701907   -18.818586    29651.965 
SHAKE stats (type/ave/delta/count) on step 3100
     1   0.999940  2.66969e-07       24
     1   109.470   1.57565e-05        8
    3100    381.23667   -59.142637            0   -42.096726    11.260634    29359.974 
SHAKE stats (type/ave/delta/count) on step 3200
     1   1.00000   7.87963e-08       24
     1   109.470   6.48181e-06        8
    3200    262.04154   -54.223043            0   -42.506602   -20.088175    29233.768 
SHAKE stats (type/ave/delta/count) on step 3300
     1   0.999977  4.43895e-07       24
     1   109.470   3.46251e-05        8
    3300    208.33766   -50.233207            0   -40.917982    22.947065    29134.152 
SHAKE stats (type/ave/delta/count) on step 3400
     1   0.999944  1.67805e-07       24
     1   109.470   1.41552e-05        8
    3400    244.44699    -50.33508            0   -39.405329    2.4001007    28898.899 
SHAKE stats (type/ave/delta/count) on step 3500
     1   0.999990  1.68912e-07       24
     1   109.470   1.50675e-05        8
    3500    281.87479   -52.073679            0   -39.470451    25.616819     28605.22 
SHAKE stats (type/ave/delta/count) on step 3600
     1   0.999977  1.38477e-07       24
     1   109.470   1.05353e-05        8
    3600    276.99427   -52.205205            0   -39.820195    10.346913    28494.798 
SHAKE stats (type/ave/delta/count) on step 3700
     1   1.00005   3.21715e-07       24
     1   109.470   2.73773e-05        8
    3700    328.15068   -55.381583            0   -40.709261   -24.118792    28642.934 
SHAKE stats (type/ave/delta/count) on step 3800
     1   0.999983  3.27795e-07       24
     1   109.470   2.13832e-05        8
    3800    256.76109   -52.884468            0   -41.404127    41.636174    28691.411 
SHAKE stats (type/ave/delta/count) on step 3900
     1   1.00002   1.65333e-07       24
     1   109.470   6.30952e-06        8
    3900    279.56777   -54.289088            0   -41.789011   -9.9012397    28871.038 
SHAKE stats (type/ave/delta/count) on step 4000
     1   1.00000   1.05272e-06       24
     1   109.470   0.000105489        8
    4000    255.10383   -52.009751            0    -40.60351    9.1608265    28864.093 
SHAKE stats (type/ave/delta/count) on step 4100
     1   1.00002   2.95195e-07       24
     1   109.470   2.07154e-05        8
    4100    284.48454   -51.979687            0   -39.259771    13.362713     28893.07 
SHAKE stats (type/ave/delta/count) on step 4200
     1   0.999974  1.43222e-07       24
     1   109.470   2.08972e-05        8
    4200    311.26627   -52.561434            0    -38.64405   0.65877754    28908.224 
SHAKE stats (type/ave/delta/count) on step 4300
     1   1.00003   4.09432e-07       24
     1   109.470   2.84815e-05        8
    4300    383.21286   -57.021985            0   -39.887713   -32.571543    29028.598 
SHAKE stats (type/ave/delta/count) on step 4400
     1   0.999982  1.79814e-07       24
     1   109.470   1.31071e-05        8
    4400    271.99808   -51.994614            0   -39.832995    25.766373    28971.908 
SHAKE stats (type/ave/delta/count) on step 4500
     1   1.00003   3.33953e-07       24
     1   109.470   2.05563e-05        8
    4500    366.16265   -56.537844            0   -40.165925   -1.1664269    29026.518 
SHAKE stats (type/ave/delta/count) on step 4600
     1   0.999977  1.60602e-07       24
     1   109.470   2.37285e-05        8
    4600    283.27586   -53.392986            0   -40.727113   -2.7427822    29076.709 
SHAKE stats (type/ave/delta/count) on step 4700
     1   1.00002   5.27997e-07       24
     1   109.470   3.77746e-05        8
    4700    370.12981   -57.982665            0   -41.433365   -26.731626    29055.523 
SHAKE stats (type/ave/delta/count) on step 4800
     1   1.00002   3.27688e-07       24
     1   109.470   2.49156e-05        8
    4800    258.28731   -53.026783            0   -41.478202    45.494868    29078.688 
SHAKE stats (type/ave/delta/count) on step 4900
     1   1.00002   2.04018e-07       24
     1   109.470   8.80757e-06        8
    4900    311.78663   -55.411996            0   -41.471345   -16.946877    29320.991 
SHAKE stats (type/ave/delta/count) on step 5000
     1   1.00000   1.43837e-07       24
     1   109.470   1.19008e-05        8
    5000    200.10325   -50.796405            0   -41.849358   -14.133109    29481.642 
SHAKE stats (type/ave/delta/count) on step 5100
     1   1.00001   2.14208e-07       24
     1   109.470   1.12197e-05        8
    5100    339.55881   -56.241745            0   -41.059341    30.329024    29408.223 
SHAKE stats (type/ave/delta/count) on step 5200
     1   0.999937  1.59489e-07       24
     1   109.470   1.32774e-05        8
    5200    366.12386   -57.685336            0   -41.315151    -27.15746    29330.162 
SHAKE stats (type/ave/delta/count) on step 5300
     1   1.00002   6.98658e-07       24
     1   109.470   4.23397e-05        8
    5300    353.21779   -58.710995            0   -42.917868   -23.434947    29136.594 
SHAKE stats (type/ave/delta/count) on step 5400
     1   0.999989  4.25982e-07       24
     1   109.470   2.45923e-05        8
    5400    326.14654   -57.467411            0   -42.884697     24.97782    29122.167 
SHAKE stats (type/ave/delta/count) on step 5500
     1   1.00001   3.29348e-07       24
     1   109.470   7.17292e-06        8
    5500    266.16886   -54.333181            0   -42.432199   -13.839563     29248.72 
SHAKE stats (type/ave/delta/count) on step 5600
     1   0.999982  4.67438e-07       24
     1   109.470   2.01162e-05        8
    5600    326.97216   -55.746445            0   -41.126816    23.029326    29105.479 
SHAKE stats (type/ave/delta/count) on step 5700
     1   0.999966  2.15849e-07       24
     1   109.470   1.98166e-05        8
    5700    199.77082   -49.217885            0   -40.285703   -43.237114    29126.812 
SHAKE stats (type/ave/delta/count) on step 5800
     1   0.999979  4.73323e-07       24
     1   109.470   4.94908e-05        8
    5800    346.92363   -54.280785            0   -38.769083    26.282924    28729.773 
SHAKE stats (type/ave/delta/count) on step 5900
     1   1.00001   5.17456e-07       24
     1   109.470   3.10470e-05        8
    5900    299.30315   -51.048357            0   -37.665869   -26.172432    28756.276 
SHAKE stats (type/ave/delta/count) on step 6000
     1   0.999991  2.04026e-07       24
     1   109.470   1.48921e-05        8
    6000    362.75258   -52.955695            0   -36.736247    4.1649127    28678.018 
SHAKE stats (type/ave/delta/count) on step 6100
     1   1.00003   2.89887e-07       24
     1   109.470   2.95610e-05        8
    6100    300.54467   -51.735832            0   -38.297833   -37.794758    28913.206 
SHAKE stats (type/ave/delta/count) on step 6200
     1   0.999993  3.42119e-07       24
     1   109.470   2.40340e-05        8
    6200    299.06782   -51.964159            0   -38.592194     52.38539    28776.855 
SHAKE stats (type/ave/delta/count) on step 6300
     1   0.999985  5.60291e-08       24
     1   109.470   6.77051e-06        8
    6300    300.47019   -52.804119            0   -39.369451   -68.338385     29027.16 
SHAKE stats (type/ave/delta/count) on step 6400
     1   0.999978  3.83527e-07       24
     1   109.470   5.09913e-05        8
    6400    291.75619   -52.666268            0   -39.621221    66.395539    28549.771 
SHAKE stats (type/ave/delta/count) on step 6500
     1   1.00005   2.89556e-07       24
     1   109.470   2.03654e-05        8
    6500    191.65825   -48.084001            0   -39.514549   -20.277228     28811.08 
SHAKE stats (type/ave/delta/count) on step 6600
     1   1.00002   2.06032e-07       24
     1   109.470   1.10563e-05        8
    6600    309.19909   -51.384941            0   -37.559985    52.308841    28874.956 
SHAKE stats (type/ave/delta/count) on step 6700
     1   1.00000   2.87892e-07       24
     1   109.470   1.67251e-05        8
    6700    327.49346    -52.82074            0   -38.177804   -16.634874    29052.473 
SHAKE stats (type/ave/delta/count) on step 6800
     1   0.999971  2.32472e-07       24
     1   109.470   9.09027e-06        8
    6800    291.84784   -51.181046            0   -38.131902    7.7299185    28834.542 
SHAKE stats (type/ave/delta/count) on step 6900
     1   0.999978  2.22308e-07       24
     1   109.470   1.87781e-05        8
    6900    291.49454   -51.211805            0   -38.178457    34.106518    28631.355 
SHAKE stats (type/ave/delta/count) on step 7000
     1   1.00002   5.28210e-07       24
     1   109.470   3.03169e-05        8
    7000    300.67572   -53.253013            0   -39.809154     25.59945    28682.962 
SHAKE stats (type/ave/delta/count) on step 7100
     1   0.999968  2.35109e-07       24
     1   109.470   1.02237e-05        8
    7100    260.12268    -51.82885            0   -40.198206   -24.735161    28752.904 
SHAKE stats (type/ave/delta/count) on step 7200
     1   1.00006   2.06448e-07       24
     1   109.470   1.33308e-05        8
    7200     321.4915   -53.874684            0   -39.500108    3.1874113    28655.868 
SHAKE stats (type/ave/delta/count) on step 7300
     1   0.999964  3.06325e-07       24
     1   109.470   4.52306e-05        8
    7300    294.72546   -52.031786            0   -38.853977    -36.77178     28846.87 
SHAKE stats (type/ave/delta/count) on step 7400
     1   1.00005   1.65588e-07       24
     1   109.470   6.05804e-06        8
    7400    315.21653   -52.360102            0   -38.266093    35.589685    28771.984 
SHAKE stats (type/ave/delta/count) on step 7500
     1   0.999997  3.51413e-07       24
     1   109.470   1.73225e-05        8
    7500    250.10812    -49.82312            0   -38.640248    4.0190453    29008.451 
SHAKE stats (type/ave/delta/count) on step 7600
     1   0.999977  9.34979e-07       24
     1   109.470   4.08320e-05        8
    7600    228.36625   -46.869661            0   -36.658915    8.6886774    28931.899 
SHAKE stats (type/ave/delta/count) on step 7700
     1   1.00001   4.57495e-07       24
     1   109.470   1.92656e-05        8
    7700    276.86541   -47.024262            0   -34.645014   -17.751799    28973.059 
SHAKE stats (type/ave/delta/count) on step 7800
     1   0.999964  3.85422e-07       24
     1   109.470   2.28783e-05        8
    7800    305.26289   -46.607018            0   -32.958058     3.006226    28747.377 
SHAKE stats (type/ave/delta/count) on step 7900
     1   1.00002   4.89848e-07       24
     1   109.470   2.30271e-05        8
    7900    317.37102   -47.943729            0   -33.753388    8.8468577    28624.187 
SHAKE stats (type/ave/delta/count) on step 8000
     1   1.00002   2.22609e-07       24
     1   109.470   1.71767e-05        8
    8000    353.64568   -50.471331            0   -34.659072    9.4067034    28706.578 
SHAKE stats (type/ave/delta/count) on step 8100
     1   0.999983  2.34047e-07       24
     1   109.470   1.60007e-05        8
    8100    330.22602   -51.055515            0   -36.290399   -30.579079    28769.298 
SHAKE stats (type/ave/delta/count) on step 8200
     1   0.999985  1.99634e-07       24
     1   109.470   1.77117e-05        8
    8200    299.52756   -50.244468            0   -36.851947     36.24055    28481.707 
SHAKE stats (type/ave/delta/count) on step 8300
     1   0.999979  1.47717e-07       24
     1   109.470   1.52571e-05        8
    8300    275.62675   -49.473852            0   -37.149988   -14.798564    28479.988 
SHAKE stats (type/ave/delta/count) on step 8400
     1   1.00005   9.08251e-07       24
     1   109.470   3.47862e-05        8
    8400    292.83817   -51.374873            0   -38.281448    36.239482    28513.683 
SHAKE stats (type/ave/delta/count) on step 8500
     1   0.999972  9.32182e-07       24
     1   109.470   1.94863e-05        8
    8500    238.86995   -48.928471            0   -38.248082   -48.490197    28774.685 
SHAKE stats (type/ave/delta/count) on step 8600
     1   0.999984  4.76051e-07       24
     1   109.470   3.65118e-05        8
    8600     417.6964   -55.845896            0   -37.169791   -4.1767215    28479.934 
SHAKE stats (type/ave/delta/count) on step 8700
     1   1.00005   5.21463e-07       24
     1   109.470   2.50516e-05        8
    8700    258.84354   -52.796475            0   -41.223023    28.567711    28510.751 
SHAKE stats (type/ave/delta/count) on step 8800
     1   0.999988  3.44804e-07       24
     1   109.470   2.12023e-05        8
    8800    261.50608   -53.211384            0   -41.518885   -12.002668     28697.86 
SHAKE stats (type/ave/delta/count) on step 8900
     1   1.00005   2.87476e-07       24
     1   109.470   2.79213e-05        8
    8900    256.46605   -51.368388            0   -39.901239    2.2110024    28811.992 
SHAKE stats (type/ave/delta/count) on step 9000
     1   0.999966  3.11670e-07       24
     1   109.470   2.11778e-05        8
    9000    329.86387   -52.924879            0   -38.175956   -24.348704    28910.589 
SHAKE stats (type/ave/delta/count) on step 9100
     1   0.999969  2.43197e-07       24
     1   109.470   1.95608e-05        8
    9100    355.30282   -53.697369            0   -37.811015    40.712773    28458.674 
SHAKE stats (type/ave/delta/count) on step 9200
     1   0.999994  6.37367e-07       24
     1   109.470   5.54473e-05        8
    9200    346.54032   -55.126376            0   -39.631813   -5.0216284     28419.93 
SHAKE stats (type/ave/delta/count) on step 9300
     1   1.00002   2.61374e-07       24
     1   109.470   1.75052e-05        8
    9300    265.04357   -52.826148            0    -40.97548     12.70268    28548.695 
SHAKE stats (type/ave/delta/count) on step 9400
     1   1.00006   2.78894e-07       24
     1   109.470   2.95552e-05        8
    9400    298.32911   -55.308483            0   -41.969547   -19.870281    28815.953 
SHAKE stats (type/ave/delta/count) on step 9500
     1   0.999957  3.62075e-07       24
     1   109.470   2.54346e-05        8
    9500    227.82371   -51.693717            0   -41.507229     15.21925    28812.788 
SHAKE stats (type/ave/delta/count) on step 9600
     1   0.999986  2.45851e-07       24
     1   109.470   3.18829e-05        8
    9600    251.70282   -50.879016            0   -39.624842    1.7529509    28657.712 
SHAKE stats (type/ave/delta/count) on step 9700
     1   0.999961  4.92072e-07       24
     1   109.470   3.96158e-05        8
    9700     287.8763   -50.819339            0   -37.947771   -17.201521     28550.29 
SHAKE stats (type/ave/delta/count) on step 9800
     1   1.00003   1.05490e-07       24
     1   109.470   8.33946e-06        8
    9800    315.99132    -51.55101            0   -37.422358    6.4796519    28466.852 
SHAKE stats (type/ave/delta/count) on step 9900
     1   0.999993  1.92443e-07       24
     1   109.470   1.63169e-05        8
    9900    311.42854   -51.496463            0   -37.571823    10.643132    28473.683 
SHAKE stats (type/ave/delta/count) on step 10000
     1   0.999992  2.12109e-07       24
     1   109.470   1.17334e-05        8
   10000    357.75963   -53.192514            0   -37.196312   -42.304435    28596.086 
   10043    385.63146   -54.726119            0   -37.483707   -14.279172    28509.615 
Loop time of 1.03566 on 1 procs for 10000 steps with 24 atoms

Performance: 834.251 ns/day, 0.029 hours/ns, 9655.688 timesteps/s
99.0% CPU use with 1 MPI tasks x no OpenMP threads

MPI task timing breakdown:
Section |  min time  |  avg time  |  max time  |%varavg| %total
---------------------------------------------------------------
Pair    | 0.029355   | 0.029355   | 0.029355   |   0.0 |  2.83
Bond    | 0.000365   | 0.000365   | 0.000365   |   0.0 |  0.04
Kspace  | 0.49642    | 0.49642    | 0.49642    |   0.0 | 47.93
Neigh   | 0.00129    | 0.00129    | 0.00129    |   0.0 |  0.12
Comm    | 0.005747   | 0.005747   | 0.005747   |   0.0 |  0.55
Output  | 0.002142   | 0.002142   | 0.002142   |   0.0 |  0.21
Modify  | 0.49837    | 0.49837    | 0.49837    |   0.0 | 48.12
Other   |            | 0.001964   |            |       |  0.19

Nlocal:        24.0000 ave          24 max          24 min
Histogram: 1 0 0 0 0 0 0 0 0 0
Nghost:        168.000 ave         168 max         168 min
Histogram: 1 0 0 0 0 0 0 0 0 0
Neighs:        276.000 ave         276 max         276 min
Histogram: 1 0 0 0 0 0 0 0 0 0

Total # of neighbors = 276
Ave neighs/atom = 11.500000
Ave special neighs/atom = 2.0000000
Neighbor list builds = 267
Dangerous builds = 0

# Now that the system's temperature has become more equilibrated,
# we can increase the timestep:

timestep     2.0
run          50000
PPPM initialization ...
  using 12-bit tables for long-range coulomb (../kspace.cpp:340)
  G vector (1/distance) = 0.22276719
  grid = 10 10 10
  stencil order = 5
  estimated absolute RMS force accuracy = 0.021653709
  estimated relative force accuracy = 6.5209501e-05
  using double precision FFTW3
  3d grid and FFT values/proc = 3375 1000
SHAKE stats (type/ave/delta/count) on step 10043
     1   0.999966  2.91091e-07       24
     1   109.470   2.44289e-05        8
Per MPI rank memory allocation (min/avg/max) = 9.669 | 9.669 | 9.669 Mbytes
Step Temp E_pair E_mol TotEng Press Volume 
   10043    385.63146   -54.725905            0   -37.483492   -16.261795    28509.615 
SHAKE stats (type/ave/delta/count) on step 10100
     1   1.00009   2.87476e-06       24
     1   109.470   0.000454602        8
   10100    302.34226   -53.707612            0   -40.189239   -10.173992    28579.866 
SHAKE stats (type/ave/delta/count) on step 10200
     1   1.00001   2.55025e-06       24
     1   109.470   0.000127152        8
   10200    409.18031   -55.830797            0   -37.535465   -19.132321    28612.086 
SHAKE stats (type/ave/delta/count) on step 10300
     1   1.00001   1.33747e-06       24
     1   109.470   6.18724e-05        8
   10300    323.77095   -56.630457            0   -42.153961   -33.789106    29008.759 
SHAKE stats (type/ave/delta/count) on step 10400
     1   0.999970  7.02692e-06       24
     1   109.470   0.000270222        8
   10400    370.97332   -61.404285            0    -44.81727    1.2288657    28734.709 
SHAKE stats (type/ave/delta/count) on step 10500
     1   0.999952  1.24536e-06       24
     1   109.470   0.000107918        8
   10500    274.63398   -57.964155            0   -45.684679    11.703077    28722.225 
SHAKE stats (type/ave/delta/count) on step 10600
     1   1.00001   1.21463e-06       24
     1   109.470   7.56707e-05        8
   10600    246.80098   -56.001333            0    -44.96633    12.421027    28812.097 
SHAKE stats (type/ave/delta/count) on step 10700
     1   0.999986  6.00838e-06       24
     1   109.470   0.000756431        8
   10700    281.37403   -55.578104            0   -42.997266    -19.39269    28842.987 
SHAKE stats (type/ave/delta/count) on step 10800
     1   1.00005   8.77674e-07       24
     1   109.470   4.65506e-05        8
   10800     269.5334   -53.994753            0   -41.943335    -20.92214    28880.743 
SHAKE stats (type/ave/delta/count) on step 10900
     1   1.00002   1.38972e-06       24
     1   109.470   7.63315e-05        8
   10900    308.72491    -54.63685            0   -40.833096   -29.952268    28835.309 
SHAKE stats (type/ave/delta/count) on step 11000
     1   0.999949  2.57004e-06       24
     1   109.470   5.39663e-05        8
   11000    306.73057   -54.865254            0    -41.15067   -24.807952    28897.191 
SHAKE stats (type/ave/delta/count) on step 11100
     1   1.00004   2.65954e-06       24
     1   109.470   0.000389520        8
   11100     267.4714   -52.711163            0   -40.751941   -39.485724    28902.703 
SHAKE stats (type/ave/delta/count) on step 11200
     1   1.00001   2.31385e-06       24
     1   109.470   0.000206340        8
   11200    255.02645   -52.601276            0   -41.198494    20.161955     28606.29 
SHAKE stats (type/ave/delta/count) on step 11300
     1   0.999957  8.84926e-06       24
     1   109.470   0.000814238        8
   11300    285.18793   -55.454833            0   -42.703467    52.662725    28356.313 
SHAKE stats (type/ave/delta/count) on step 11400
     1   1.00001   3.87293e-06       24
     1   109.470   0.000470698        8
   11400    351.48032    -57.75689            0   -42.041449    22.100405    28278.815 
SHAKE stats (type/ave/delta/count) on step 11500
     1   1.00006   2.67579e-06       24
     1   109.470   0.000216397        8
   11500    278.71948   -55.919654            0   -43.457506   -16.287354    28480.588 
SHAKE stats (type/ave/delta/count) on step 11600
     1   1.00006   9.11718e-07       24
     1   109.470   5.43210e-05        8
   11600    305.31775   -56.635808            0   -42.984394    31.749707    28493.368 
SHAKE stats (type/ave/delta/count) on step 11700
     1   1.00003   5.90616e-06       24
     1   109.470   0.000278179        8
   11700    275.10616   -53.425199            0   -41.124611    30.708802    28456.053 
SHAKE stats (type/ave/delta/count) on step 11800
     1   1.00017   1.56143e-06       24
     1   109.470   0.000194375        8
   11800    288.06756   -53.298186            0   -40.418066    24.680977    28236.792 
SHAKE stats (type/ave/delta/count) on step 11900
     1   1.00010   3.38149e-06       24
     1   109.470   0.000321770        8
   11900    362.92497   -56.833258            0   -40.606102      79.2747    27884.905 
SHAKE stats (type/ave/delta/count) on step 12000
     1   0.999903  2.83318e-07       24
     1   109.470   2.18522e-05        8
   12000     321.9353   -54.916898            0   -40.522478    22.543162    27978.714 
SHAKE stats (type/ave/delta/count) on step 12100
     1   0.999928  4.77120e-06       24
     1   109.470   0.000293650        8
   12100    397.95727   -58.678281            0   -40.884756      6.60713     27945.16 
SHAKE stats (type/ave/delta/count) on step 12200
     1   0.999893  6.66170e-06       24
     1   109.470   0.000626483        8
   12200     288.9309   -52.277817            0   -39.359095    7.9310815    28023.435 
SHAKE stats (type/ave/delta/count) on step 12300
     1   0.999904  2.81171e-06       24
     1   109.470   0.000171036        8
   12300    272.55772   -48.305253            0   -36.118611    38.679453    28069.051 
SHAKE stats (type/ave/delta/count) on step 12400
     1   1.00003   7.87821e-07       24
     1   109.470   2.30172e-05        8
   12400    271.94535   -50.796505            0   -38.637244   -48.987358    28532.869 
SHAKE stats (type/ave/delta/count) on step 12500
     1   0.999947  6.36929e-06       24
     1   109.470   0.000379722        8
   12500    297.75789   -50.388846            0    -37.07545   -62.392163    28600.191 
SHAKE stats (type/ave/delta/count) on step 12600
     1   0.999999  4.78830e-07       24
     1   109.470   1.90062e-05        8
   12600    320.12673   -51.506719            0   -37.193164   -26.103399    28579.552 
SHAKE stats (type/ave/delta/count) on step 12700
     1   1.00008   1.76085e-06       24
     1   109.470   5.00888e-05        8
   12700     343.7182   -51.769663            0   -36.401283      21.9131    28657.981 
SHAKE stats (type/ave/delta/count) on step 12800
     1   1.00008   5.80586e-06       24
     1   109.470   0.000378166        8
   12800    449.04132   -57.090515            0   -37.012911    8.4079723    28393.559 
SHAKE stats (type/ave/delta/count) on step 12900
     1   0.999961  1.11136e-06       24
     1   109.470   7.89059e-05        8
   12900    331.62293   -54.566978            0   -39.739403   -4.3443265    28482.193 
SHAKE stats (type/ave/delta/count) on step 13000
     1   1.00017   3.95746e-06       24
     1   109.470   0.000153388        8
   13000    273.72805   -56.359961            0   -44.120991   -4.2072311    28668.418 
SHAKE stats (type/ave/delta/count) on step 13100
     1   1.00017   2.18308e-06       24
     1   109.470   0.000212657        8
   13100    270.40914    -56.26932            0   -44.178746   -2.4341532    28495.524 
SHAKE stats (type/ave/delta/count) on step 13200
     1   1.00017   1.34257e-06       24
     1   109.470   0.000119903        8
   13200    285.61104   -54.395607            0   -41.625323    20.868607    28505.918 
SHAKE stats (type/ave/delta/count) on step 13300
     1   0.999976  1.71925e-06       24
     1   109.470   8.90559e-05        8
   13300    285.11566   -51.764488            0   -39.016353    68.161449     28616.58 
SHAKE stats (type/ave/delta/count) on step 13400
     1   0.999920  9.35203e-07       24
     1   109.470   6.44524e-05        8
   13400    287.82392   -54.231464            0   -41.362237   -32.439082    29096.043 
SHAKE stats (type/ave/delta/count) on step 13500
     1   0.999935  7.35431e-06       24
     1   109.470   0.000227306        8
   13500    279.54547   -53.609322            0   -41.110243   -58.602266    28951.842 
SHAKE stats (type/ave/delta/count) on step 13600
     1   1.00002   3.27221e-06       24
     1   109.470   0.000183965        8
   13600    297.18372    -52.74545            0   -39.457727   -2.7214127    28597.545 
SHAKE stats (type/ave/delta/count) on step 13700
     1   1.00002   1.68552e-06       24
     1   109.470   6.65688e-05        8
   13700     226.0132   -50.668973            0   -40.563437   -7.4369782    28786.704 
SHAKE stats (type/ave/delta/count) on step 13800
     1   0.999928  2.47534e-06       24
     1   109.470   0.000216915        8
   13800     281.6293   -54.660513            0   -42.068261   -31.609557    28968.272 
SHAKE stats (type/ave/delta/count) on step 13900
     1   0.999916  2.26233e-06       24
     1   109.470   0.000230276        8
   13900    260.55244   -52.429048            0   -40.779188   -37.831467    29061.697 
SHAKE stats (type/ave/delta/count) on step 14000
     1   0.999929  4.72597e-06       24
     1   109.470   0.000197522        8
   14000    339.30563   -54.119251            0   -38.948167   -28.796689    28817.194 
SHAKE stats (type/ave/delta/count) on step 14100
     1   0.999938  6.25887e-07       24
     1   109.470   6.23041e-05        8
   14100     220.6902   -51.164739            0   -41.297205    1.2302195    28505.032 
SHAKE stats (type/ave/delta/count) on step 14200
     1   0.999937  1.41985e-06       24
     1   109.470   8.16814e-05        8
   14200     253.8829   -52.933593            0   -41.581942   -1.4963783    28415.097 
SHAKE stats (type/ave/delta/count) on step 14300
     1   1.00002   7.86304e-07       24
     1   109.470   2.49337e-05        8
   14300    271.51482   -52.876238            0   -40.736226    44.191712      28624.7 
SHAKE stats (type/ave/delta/count) on step 14400
     1   1.00003   2.13731e-06       24
     1   109.470   0.000204977        8
   14400    336.87201    -54.78051            0   -39.718238     60.74998    28813.702 
SHAKE stats (type/ave/delta/count) on step 14500
     1   1.00008   6.75445e-07       24
     1   109.470   4.51825e-05        8
   14500     298.8039   -53.357825            0   -39.997661    25.578154    29251.115 
SHAKE stats (type/ave/delta/count) on step 14600
     1   0.999997  3.49139e-06       24
     1   109.470   0.000290625        8
   14600     353.9625   -54.783789            0   -38.957364   -2.1800203    29206.486 
SHAKE stats (type/ave/delta/count) on step 14700
     1   0.999931  1.61316e-07       24
     1   109.470   1.75044e-05        8
   14700    248.85169   -51.656618            0   -40.529923    -51.26815    28629.963 
SHAKE stats (type/ave/delta/count) on step 14800
     1   0.999970  4.65669e-06       24
     1   109.470   0.000440284        8
   14800    261.60243   -52.197733            0   -40.500925   -58.219988    28504.666 
SHAKE stats (type/ave/delta/count) on step 14900
     1   0.999994  2.02036e-06       24
     1   109.470   7.52538e-05        8
   14900    293.00935   -50.027659            0    -36.92658   -48.179677     28560.02 
SHAKE stats (type/ave/delta/count) on step 15000
     1   0.999939  1.34209e-06       24
     1   109.470   0.000168956        8
   15000    278.38804   -49.321771            0   -36.874443    6.9597273    28394.108 
SHAKE stats (type/ave/delta/count) on step 15100
     1   0.999886  1.30153e-06       24
     1   109.470   9.79247e-05        8
   15100     314.4627   -52.122085            0   -38.061782   -24.218377    28120.617 
SHAKE stats (type/ave/delta/count) on step 15200
     1   1.00010   1.00147e-06       24
     1   109.470   5.32622e-05        8
   15200    199.88866   -49.791999            0   -40.854547   -41.669876    28187.072 
SHAKE stats (type/ave/delta/count) on step 15300
     1   1.00007   3.23849e-06       24
     1   109.470   0.000149546        8
   15300    261.33987   -50.848319            0   -39.163252   -51.829161    28043.964 
SHAKE stats (type/ave/delta/count) on step 15400
     1   1.00004   2.07560e-07       24
     1   109.470   2.71170e-05        8
   15400    251.57842   -48.918816            0   -37.670204   -15.056039    27903.343 
SHAKE stats (type/ave/delta/count) on step 15500
     1   1.00008   4.11391e-07       24
     1   109.470   1.43932e-05        8
   15500    314.31331   -52.302563            0   -38.248939   -23.760158    28108.001 
SHAKE stats (type/ave/delta/count) on step 15600
     1   1.00002   7.61307e-07       24
     1   109.470   5.09234e-05        8
   15600    319.57459   -49.742021            0   -35.453154   -28.329012    27962.223 
SHAKE stats (type/ave/delta/count) on step 15700
     1   1.00010   4.70430e-06       24
     1   109.470   0.000438778        8
   15700    338.43996   -54.330925            0   -39.198547    -37.16502    27712.317 
SHAKE stats (type/ave/delta/count) on step 15800
     1   0.999989  1.25375e-06       24
     1   109.470   7.51385e-05        8
   15800     317.3663   -54.786805            0   -40.596675   -26.021346    28032.896 
SHAKE stats (type/ave/delta/count) on step 15900
     1   1.00001   2.16566e-06       24
     1   109.470   0.000263002        8
   15900    262.92376   -51.588852            0   -39.832965    -34.53919    28198.847 
SHAKE stats (type/ave/delta/count) on step 16000
     1   0.999975  7.40467e-07       24
     1   109.470   4.12963e-05        8
   16000    397.72383    -54.96302            0   -37.179932   -11.442574    28081.824 
SHAKE stats (type/ave/delta/count) on step 16100
     1   0.999989  3.82409e-07       24
     1   109.470   8.96544e-06        8
   16100    326.39457   -55.355313            0    -40.76151   -16.426748    28029.411 
SHAKE stats (type/ave/delta/count) on step 16200
     1   1.00003   5.74956e-07       24
     1   109.470   2.77787e-05        8
   16200    369.49899   -56.439507            0   -39.918412   -25.116457    27955.563 
SHAKE stats (type/ave/delta/count) on step 16300
     1   0.999920  7.55376e-07       24
     1   109.470   5.82188e-05        8
   16300    241.45383   -51.379511            0   -40.583591   -3.5339498     27684.34 
SHAKE stats (type/ave/delta/count) on step 16400
     1   1.00010   9.14572e-07       24
     1   109.470   7.50303e-05        8
   16400    214.24535   -50.754099            0   -41.174728    -18.43524    27506.869 
SHAKE stats (type/ave/delta/count) on step 16500
     1   1.00010   4.56969e-06       24
     1   109.470   0.000702235        8
   16500    378.46546   -56.579781            0   -39.657776    39.772679    27505.768 
SHAKE stats (type/ave/delta/count) on step 16600
     1   1.00007   1.79718e-06       24
     1   109.470   6.50607e-05        8
   16600    325.98724   -57.643162            0   -43.067572    13.929177    27968.831 
SHAKE stats (type/ave/delta/count) on step 16700
     1   0.999926  2.61956e-06       24
     1   109.470   0.000102001        8
   16700    335.31678   -57.396266            0   -42.403532   -6.4516434    28134.484 
SHAKE stats (type/ave/delta/count) on step 16800
     1   0.999924  3.32044e-06       24
     1   109.470   0.000187366        8
   16800    290.50754   -56.101494            0   -43.112277   -21.571286    27919.927 
SHAKE stats (type/ave/delta/count) on step 16900
     1   0.999942  2.77044e-06       24
     1   109.470   0.000184286        8
   16900    193.01706   -50.850539            0   -42.220331   -24.997586    27721.994 
SHAKE stats (type/ave/delta/count) on step 17000
     1   0.999961  2.50260e-06       24
     1   109.470   0.000275465        8
   17000     296.4981   -54.660481            0   -41.403413   -42.965159    27547.194 
SHAKE stats (type/ave/delta/count) on step 17100
     1   1.00003   5.38138e-07       24
     1   109.470   4.50798e-05        8
   17100    205.41841   -51.406738            0    -42.22204    6.3660206    27319.611 
SHAKE stats (type/ave/delta/count) on step 17200
     1   1.00003   5.79062e-06       24
     1   109.470   0.000390864        8
   17200    259.73445   -50.937525            0   -39.324239    24.016235    27607.868 
SHAKE stats (type/ave/delta/count) on step 17300
     1   1.00007   9.45808e-06       24
     1   109.470   0.000697676        8
   17300    400.92195   -58.997851            0   -41.071768    5.4912134     27558.66 
SHAKE stats (type/ave/delta/count) on step 17400
     1   1.00008   2.12953e-06       24
     1   109.470   7.73861e-05        8
   17400    241.54729   -56.982607            0   -46.182508   -11.267298    27792.622 
SHAKE stats (type/ave/delta/count) on step 17500
     1   1.00012   1.85673e-07       24
     1   109.470   2.25095e-05        8
   17500    304.86021   -59.563222            0   -45.932266   -56.400299    28339.321 
SHAKE stats (type/ave/delta/count) on step 17600
     1   0.999942  2.75008e-06       24
     1   109.470   0.000180940        8
   17600    330.79987   -59.914077            0   -45.123303   -5.8696093    28370.795 
SHAKE stats (type/ave/delta/count) on step 17700
     1   0.999968  8.66559e-07       24
     1   109.470   5.35853e-05        8
   17700    288.56017   -57.190489            0   -44.288344    29.311333     27733.35 
SHAKE stats (type/ave/delta/count) on step 17800
     1   1.00002   5.83266e-07       24
     1   109.470   3.53631e-05        8
   17800    322.74236   -58.683251            0   -44.252746  -0.38073419    27584.816 
SHAKE stats (type/ave/delta/count) on step 17900
     1   0.999992  5.77326e-07       24
     1   109.470   4.16678e-05        8
   17900     271.4155   -54.806368            0   -42.670798    7.9224127    27771.022 
SHAKE stats (type/ave/delta/count) on step 18000
     1   0.999915  3.05538e-06       24
     1   109.470   0.000165326        8
   18000    378.36181   -58.570546            0   -41.653176   -19.411288    27925.404 
SHAKE stats (type/ave/delta/count) on step 18100
     1   0.999903  6.33559e-07       24
     1   109.470   5.62124e-05        8
   18100    253.59665   -53.778918            0   -42.440067    29.928855     27596.95 
SHAKE stats (type/ave/delta/count) on step 18200
     1   0.999978  6.04470e-06       24
     1   109.470   0.000513307        8
   18200    256.31788    -51.85654            0   -40.396017   -42.978073    27658.479 
SHAKE stats (type/ave/delta/count) on step 18300
     1   1.00001   8.13324e-06       24
     1   109.470   0.000794117        8
   18300    280.29636   -53.470405            0   -40.937751   -15.912229    27392.889 
SHAKE stats (type/ave/delta/count) on step 18400
     1   1.00004   8.01386e-06       24
     1   109.470   0.000506426        8
   18400    360.90917   -63.070139            0   -46.933114   -42.141456    27345.045 
SHAKE stats (type/ave/delta/count) on step 18500
     1   1.00001   3.18287e-06       24
     1   109.470   0.000214867        8
   18500    367.00895   -61.462022            0   -45.052262   -11.115547    27178.839 
SHAKE stats (type/ave/delta/count) on step 18600
     1   1.00010   1.45375e-06       24
     1   109.470   7.71195e-05        8
   18600    268.04961   -55.837951            0   -43.852877    41.009412    27228.752 
SHAKE stats (type/ave/delta/count) on step 18700
     1   1.00000   2.38505e-06       24
     1   109.470   0.000237010        8
   18700    381.37983   -61.198754            0   -44.146441   -11.938432     27516.81 
SHAKE stats (type/ave/delta/count) on step 18800
     1   0.999947  3.78084e-07       24
     1   109.470   2.44758e-05        8
   18800    345.27104   -57.840643            0   -42.402832     8.686546    27321.054 
SHAKE stats (type/ave/delta/count) on step 18900
     1   1.00001   2.56596e-06       24
     1   109.470   0.000101156        8
   18900    310.85052   -55.371296            0   -41.472501    48.246929    27060.053 
SHAKE stats (type/ave/delta/count) on step 19000
     1   1.00006   4.59002e-06       24
     1   109.470   0.000232545        8
   19000    294.76793   -54.616482            0   -41.436774    7.7592515      27226.7 
SHAKE stats (type/ave/delta/count) on step 19100
     1   1.00002   5.63071e-07       24
     1   109.470   4.01062e-05        8
   19100    280.14013   -55.056451            0   -42.530783    39.663176    27379.002 
SHAKE stats (type/ave/delta/count) on step 19200
     1   1.00005   1.67288e-06       24
     1   109.470   0.000198741        8
   19200      282.876   -54.841952            0   -42.193957    1.2694856    27319.136 
SHAKE stats (type/ave/delta/count) on step 19300
     1   1.00007   2.77101e-06       24
     1   109.470   0.000128636        8
   19300    262.52389   -53.060941            0   -41.322933   -57.229455    27417.525 
SHAKE stats (type/ave/delta/count) on step 19400
     1   1.00006   5.45943e-06       24
     1   109.470   0.000286768        8
   19400    341.06196   -59.048384            0   -43.798771   -49.654897     27451.35 
SHAKE stats (type/ave/delta/count) on step 19500
     1   0.999973  3.49533e-06       24
     1   109.470   0.000270824        8
   19500    455.12185   -63.602482            0   -43.253006    43.555175    27314.732 
SHAKE stats (type/ave/delta/count) on step 19600
     1   1.00002   5.24567e-07       24
     1   109.470   4.22689e-05        8
   19600    248.02851   -57.698166            0   -46.608278     13.66392    27364.656 
SHAKE stats (type/ave/delta/count) on step 19700
     1   1.00001   9.54093e-07       24
     1   109.470   0.000160608        8
   19700    344.61903   -58.993702            0   -43.585044    26.069139    27244.994 
SHAKE stats (type/ave/delta/count) on step 19800
     1   0.999905  3.28657e-06       24
     1   109.470   0.000351834        8
   19800    238.71458   -54.584759            0   -43.911317    20.688943     27356.32 
SHAKE stats (type/ave/delta/count) on step 19900
     1   0.999992  3.77972e-06       24
     1   109.470   0.000221859        8
   19900    397.08151   -60.145032            0   -42.390664    37.874158    27494.101 
SHAKE stats (type/ave/delta/count) on step 20000
     1   0.999991  3.47485e-07       24
     1   109.470   2.81047e-05        8
   20000    247.26334   -57.814024            0   -46.758349    12.498196    27452.004 
SHAKE stats (type/ave/delta/count) on step 20100
     1   0.999979  1.43062e-06       24
     1   109.470   0.000150500        8
   20100    250.32651   -55.743822            0   -44.551185   -59.297081    27487.613 
SHAKE stats (type/ave/delta/count) on step 20200
     1   1.00002   1.46146e-06       24
     1   109.470   0.000116171        8
   20200    221.40262   -55.003075            0   -45.103688    24.569178    27279.274 
SHAKE stats (type/ave/delta/count) on step 20300
     1   1.00011   4.71731e-06       24
     1   109.470   0.000440431        8
   20300    405.16453   -62.803877            0     -44.6881    12.983604    27325.533 
SHAKE stats (type/ave/delta/count) on step 20400
     1   1.00002   4.60716e-06       24
     1   109.470   0.000506932        8
   20400    256.23878   -57.730512            0   -46.273525    36.223214    27374.617 
SHAKE stats (type/ave/delta/count) on step 20500
     1   0.999960  1.59673e-06       24
     1   109.470   0.000106661        8
   20500    221.94695   -53.924913            0   -44.001188   -28.024888    27498.421 
SHAKE stats (type/ave/delta/count) on step 20600
     1   1.00004   1.75815e-06       24
     1   109.470   5.26798e-05        8
   20600    273.44843    -55.30907            0   -43.082603   -49.342067    27502.744 
SHAKE stats (type/ave/delta/count) on step 20700
     1   0.999947  8.69918e-07       24
     1   109.470   8.06461e-05        8
   20700    233.04603   -53.852777            0   -43.432788   -16.000238    27322.283 
SHAKE stats (type/ave/delta/count) on step 20800
     1   0.999980  6.05182e-06       24
     1   109.470   0.000109662        8
   20800    275.85074   -56.549139            0    -44.21526    16.500205    26981.167 
SHAKE stats (type/ave/delta/count) on step 20900
     1   0.999997  4.05028e-06       24
     1   109.470   0.000188255        8
   20900    200.31727   -52.282106            0    -43.32549   -43.038538    27086.371 
SHAKE stats (type/ave/delta/count) on step 21000
     1   1.00000   1.28864e-06       24
     1   109.470   7.64384e-05        8
   21000    316.83989   -58.378902            0    -44.21231   -52.347116    27311.706 
SHAKE stats (type/ave/delta/count) on step 21100
     1   0.999992  3.62713e-06       24
     1   109.470   9.86870e-05        8
   21100    275.53701   -54.839164            0   -42.519311   -22.179659    27216.999 
SHAKE stats (type/ave/delta/count) on step 21200
     1   1.00009   6.83920e-06       24
     1   109.470   0.000161531        8
   21200    324.01262   -56.226979            0   -41.739678    19.502321    27220.016 
SHAKE stats (type/ave/delta/count) on step 21300
     1   1.00005   1.75004e-06       24
     1   109.470   0.000165102        8
   21300    276.70096   -55.590927            0   -43.219032   -22.734035    27500.566 
SHAKE stats (type/ave/delta/count) on step 21400
     1   1.00003   4.47498e-07       24
     1   109.470   2.24568e-05        8
   21400    197.62551   -54.867159            0   -46.030898   -26.788386    27757.421 
SHAKE stats (type/ave/delta/count) on step 21500
     1   1.00002   1.41329e-06       24
     1   109.470   0.000140309        8
   21500    322.15773    -59.02859            0   -44.624225    16.802059    27396.459 
SHAKE stats (type/ave/delta/count) on step 21600
     1   1.00015   1.34436e-06       24
     1   109.470   6.72085e-05        8
   21600    287.51147   -57.335465            0   -44.480209   -8.2145962    27203.302 
SHAKE stats (type/ave/delta/count) on step 21700
     1   1.00008   2.03408e-06       24
     1   109.470   0.000271344        8
   21700    298.80787   -55.513547            0   -42.153204   -14.768686     27393.56 
SHAKE stats (type/ave/delta/count) on step 21800
     1   1.00000   1.49878e-06       24
     1   109.470   9.51729e-05        8
   21800    252.59684   -52.050753            0   -40.756605   -14.238055    27567.546 
SHAKE stats (type/ave/delta/count) on step 21900
     1   0.999974  1.72859e-06       24
     1   109.470   4.60849e-05        8
   21900    345.39411   -55.015726            0   -39.572412    7.0864095    27270.783 
SHAKE stats (type/ave/delta/count) on step 22000
     1   0.999977  1.95198e-06       24
     1   109.470   0.000157142        8
   22000    358.59179     -54.3217            0    -38.28829   -36.884284    27454.719 
SHAKE stats (type/ave/delta/count) on step 22100
     1   0.999988  1.22000e-06       24
     1   109.470   0.000112803        8
   22100    189.81236   -45.160144            0   -36.673225    16.894832    27252.509 
SHAKE stats (type/ave/delta/count) on step 22200
     1   0.999922  1.09891e-06       24
     1   109.470   6.36888e-05        8
   22200     257.2879   -48.438429            0   -36.934534   -23.430434    26885.645 
SHAKE stats (type/ave/delta/count) on step 22300
     1   1.00001   5.09244e-06       24
     1   109.470   0.000444141        8
   22300    322.34595   -54.520551            0    -40.10777   -38.685402    26772.134 
SHAKE stats (type/ave/delta/count) on step 22400
     1   1.00001   2.14613e-06       24
     1   109.470   0.000127385        8
   22400     351.0661    -54.37897            0    -38.68205     3.160043    26573.767 
SHAKE stats (type/ave/delta/count) on step 22500
     1   1.00004   1.94212e-06       24
     1   109.470   0.000305901        8
   22500    334.33085   -55.874997            0   -40.926346   -17.510932     26548.28 
SHAKE stats (type/ave/delta/count) on step 22600
     1   1.00010   3.86690e-06       24
     1   109.470   0.000529535        8
   22600    288.65757   -56.036946            0   -43.130445   -56.303114    26819.468 
SHAKE stats (type/ave/delta/count) on step 22700
     1   1.00003   2.36554e-06       24
     1   109.470   0.000146452        8
   22700    269.74739   -53.704211            0   -41.643225   -41.617881    26926.819 
SHAKE stats (type/ave/delta/count) on step 22800
     1   1.00011   2.83779e-06       24
     1   109.470   0.000122019        8
   22800    277.79769   -54.808828            0   -42.387896     16.40848     26855.47 
SHAKE stats (type/ave/delta/count) on step 22900
     1   1.00003   7.03132e-06       24
     1   109.470   0.000514774        8
   22900    315.10555   -58.615888            0   -44.526841    51.520408    26969.066 
SHAKE stats (type/ave/delta/count) on step 23000
     1   1.00004   4.14891e-06       24
     1   109.470   0.000115871        8
   23000    289.92909   -58.151161            0   -45.187808    23.364653    27270.781 
SHAKE stats (type/ave/delta/count) on step 23100
     1   0.999985  3.68057e-06       24
     1   109.470   0.000274263        8
   23100    327.05954   -57.717535            0      -43.094   -49.166688     27592.52 
SHAKE stats (type/ave/delta/count) on step 23200
     1   0.999978  5.58361e-07       24
     1   109.470   2.26349e-05        8
   23200    274.06465   -55.849665            0   -43.595646     -58.0562    27412.937 
SHAKE stats (type/ave/delta/count) on step 23300
     1   0.999992  1.73389e-06       24
     1   109.470   0.000151821        8
   23300    278.53205   -55.434074            0   -42.980307   -14.756529    27007.146 
SHAKE stats (type/ave/delta/count) on step 23400
     1   0.999999  2.76466e-06       24
     1   109.470   0.000169387        8
   23400    266.71501   -54.124772            0    -42.19937   -46.722245    27042.268 
SHAKE stats (type/ave/delta/count) on step 23500
     1   1.00002   1.29914e-07       24
     1   109.470   1.03651e-05        8
   23500    300.40065   -55.997331            0   -42.565772   -23.826234    26922.736 
SHAKE stats (type/ave/delta/count) on step 23600
     1   0.999953  7.47379e-06       24
     1   109.470   0.000569002        8
   23600    314.28755   -56.590214            0   -42.537741   -30.188344     26891.89 
SHAKE stats (type/ave/delta/count) on step 23700
     1   1.00003   9.55094e-07       24
     1   109.470   8.96874e-05        8
   23700    293.95387   -54.326954            0   -41.183644   -43.098113     26924.06 
SHAKE stats (type/ave/delta/count) on step 23800
     1   1.00011   1.80988e-06       24
     1   109.470   9.11334e-05        8
   23800    232.23928   -49.679005            0   -39.295087   -18.673318    26749.953 
SHAKE stats (type/ave/delta/count) on step 23900
     1   1.00008   1.25456e-06       24
     1   109.470   7.84396e-05        8
   23900     359.0894   -51.480659            0      -35.425   -37.046659    26758.037 
SHAKE stats (type/ave/delta/count) on step 24000
     1   1.00003   3.44869e-06       24
     1   109.470   0.000129469        8
   24000    338.42838   -53.893137            0   -38.761276    -31.60896     26558.39 
SHAKE stats (type/ave/delta/count) on step 24100
     1   1.00006   3.26560e-06       24
     1   109.470   0.000304618        8
   24100    317.72054   -54.400181            0   -40.194212    15.853379    26592.919 
SHAKE stats (type/ave/delta/count) on step 24200
     1   1.00005   2.63208e-06       24
     1   109.470   0.000347103        8
   24200    298.38733    -56.05205            0    -42.71051    10.151882    26733.254 
SHAKE stats (type/ave/delta/count) on step 24300
     1   1.00003   1.57453e-06       24
     1   109.470   6.15331e-05        8
   24300     299.8411   -60.506044            0   -47.099504    42.117665    26930.534 
SHAKE stats (type/ave/delta/count) on step 24400
     1   0.999977  4.39760e-06       24
     1   109.470   0.000165410        8
   24400     262.7096   -56.347675            0   -44.601364    57.273542    26870.114 
SHAKE stats (type/ave/delta/count) on step 24500
     1   0.999978  1.49172e-06       24
     1   109.470   0.000115188        8
   24500    348.91019   -57.296213            0   -41.695688   -4.0991997    26790.022 
SHAKE stats (type/ave/delta/count) on step 24600
     1   0.999989  1.86740e-06       24
     1   109.470   0.000114469        8
   24600    355.44756   -60.327182            0   -44.434357   -42.582773    26570.332 
SHAKE stats (type/ave/delta/count) on step 24700
     1   0.999989  6.58410e-07       24
     1   109.470   1.83968e-05        8
   24700    350.26534   -60.368263            0   -44.707146    46.932923    26204.922 
SHAKE stats (type/ave/delta/count) on step 24800
     1   1.00011   2.06524e-06       24
     1   109.470   0.000141679        8
   24800    272.78198    -56.18227            0   -43.985601    27.058457     26153.88 
SHAKE stats (type/ave/delta/count) on step 24900
     1   1.00004   8.57920e-06       24
     1   109.470   0.000139313        8
   24900    404.42342   -60.269465            0   -42.186824    31.025071    26416.932 
SHAKE stats (type/ave/delta/count) on step 25000
     1   0.999954  2.53173e-06       24
     1   109.470   0.000104828        8
   25000    399.40018   -62.233322            0   -44.375281    10.719749    26611.845 
SHAKE stats (type/ave/delta/count) on step 25100
     1   1.00001   1.77402e-06       24
     1   109.470   0.000117756        8
   25100    247.56842   -54.309558            0   -43.240242    34.406197    26303.133 
SHAKE stats (type/ave/delta/count) on step 25200
     1   1.00004   2.15282e-06       24
     1   109.470   0.000302401        8
   25200    320.25641   -56.863122            0   -42.543769   -16.427254    26279.001 
SHAKE stats (type/ave/delta/count) on step 25300
     1   0.999989  1.18211e-06       24
     1   109.470   9.85331e-05        8
   25300    300.32855   -56.526658            0   -43.098323   -3.6965441    26280.714 
SHAKE stats (type/ave/delta/count) on step 25400
     1   0.999972  2.93199e-06       24
     1   109.470   0.000341439        8
   25400    284.36364   -53.853145            0   -41.138635   -33.613471    26428.387 
SHAKE stats (type/ave/delta/count) on step 25500
     1   0.999913  2.64966e-07       24
     1   109.470   3.37798e-05        8
   25500    390.67035   -57.909725            0   -40.442013   -45.861176    26474.158 
SHAKE stats (type/ave/delta/count) on step 25600
     1   0.999983  1.75246e-06       24
     1   109.470   7.66205e-05        8
   25600    209.97331    -53.04364            0   -43.655282   -21.566984    26547.166 
SHAKE stats (type/ave/delta/count) on step 25700
     1   0.999937  1.63878e-06       24
     1   109.470   8.49195e-05        8
   25700    232.83903   -52.249439            0   -41.838705   -18.873772    26532.984 
SHAKE stats (type/ave/delta/count) on step 25800
     1   1.00006   3.17934e-06       24
     1   109.470   0.000176411        8
   25800    327.18611   -55.229011            0   -40.599816    54.366303    26209.111 
SHAKE stats (type/ave/delta/count) on step 25900
     1   1.00002   4.18545e-06       24
     1   109.470   0.000109250        8
   25900    329.69356    -55.13809            0   -40.396782    14.140935    26208.534 
SHAKE stats (type/ave/delta/count) on step 26000
     1   1.00003   9.30363e-07       24
     1   109.470   2.01522e-05        8
   26000    303.53097   -55.649387            0   -42.077864    12.992625    26255.789 
SHAKE stats (type/ave/delta/count) on step 26100
     1   1.00005   1.56040e-06       24
     1   109.470   0.000154375        8
   26100    318.95185   -56.634432            0   -42.373409    11.034699    26158.426 
SHAKE stats (type/ave/delta/count) on step 26200
     1   1.00006   9.26572e-07       24
     1   109.470   8.28902e-05        8
   26200    335.69829   -58.369797            0   -43.360005   -38.724609    26483.548 
SHAKE stats (type/ave/delta/count) on step 26300
     1   1.00006   8.06652e-07       24
     1   109.470   8.31755e-05        8
   26300    235.84977   -53.661165            0   -43.115814   -15.163744    26505.592 
SHAKE stats (type/ave/delta/count) on step 26400
     1   0.999970  6.44666e-06       24
     1   109.470   0.000431507        8
   26400    294.13901   -51.118356            0   -37.966768    8.3627592    26166.895 
SHAKE stats (type/ave/delta/count) on step 26500
     1   1.00009   4.62801e-06       24
     1   109.470   0.000293509        8
   26500     336.5271   -55.693862            0   -40.647012    31.293125    25988.655 
SHAKE stats (type/ave/delta/count) on step 26600
     1   1.00000   2.64087e-06       24
     1   109.470   0.000171835        8
   26600    250.61844   -51.607105            0   -40.401415    39.565729    26245.207 
SHAKE stats (type/ave/delta/count) on step 26700
     1   1.00008   1.07914e-06       24
     1   109.470   8.87419e-05        8
   26700    246.21448   -49.197566            0   -38.188788    18.119953    26538.568 
SHAKE stats (type/ave/delta/count) on step 26800
     1   0.999963  4.89858e-07       24
     1   109.470   3.10796e-05        8
   26800    251.31089   -47.047211            0   -35.810561    4.0988012    26649.878 
SHAKE stats (type/ave/delta/count) on step 26900
     1   0.999936  8.62450e-06       24
     1   109.470   0.000579442        8
   26900    207.00648   -44.324437            0   -35.068732   -55.942469    26977.092 
SHAKE stats (type/ave/delta/count) on step 27000
     1   0.999950  7.21192e-06       24
     1   109.470   0.000245541        8
   27000    398.94992   -52.701684            0   -34.863776    4.1666267    26319.426 
SHAKE stats (type/ave/delta/count) on step 27100
     1   0.999922  1.88655e-06       24
     1   109.470   9.69465e-05        8
   27100    283.65119   -52.641242            0   -39.958588    -28.38359    26073.171 
SHAKE stats (type/ave/delta/count) on step 27200
     1   1.00002   1.43092e-06       24
     1   109.470   6.56933e-05        8
   27200    370.08716    -57.72428            0   -41.176887   -5.4421817    26055.505 
SHAKE stats (type/ave/delta/count) on step 27300
     1   0.999961  1.83757e-06       24
     1   109.470   0.000110875        8
   27300     433.6595   -59.675678            0   -40.285829    43.647405    25974.153 
SHAKE stats (type/ave/delta/count) on step 27400
     1   0.999938  2.35806e-06       24
     1   109.470   0.000348598        8
   27400    299.64094    -55.16412            0   -41.766529    -28.84792    26394.324 
SHAKE stats (type/ave/delta/count) on step 27500
     1   1.00005   1.84421e-06       24
     1   109.470   0.000122656        8
   27500    286.99135   -54.905625            0   -42.073624   -26.828278    26281.473 
SHAKE stats (type/ave/delta/count) on step 27600
     1   0.999938  6.97578e-07       24
     1   109.470   8.60416e-05        8
   27600    276.75261    -54.08991            0   -41.715706   -6.3084676    26191.991 
SHAKE stats (type/ave/delta/count) on step 27700
     1   0.999912  5.20628e-06       24
     1   109.470   0.000307464        8
   27700      408.208    -58.05956            0   -39.807702     81.29431    25802.595 
SHAKE stats (type/ave/delta/count) on step 27800
     1   0.999945  2.66367e-06       24
     1   109.470   0.000241502        8
   27800    347.71918   -60.770571            0   -45.223298    101.61929    25698.084 
SHAKE stats (type/ave/delta/count) on step 27900
     1   0.999993  2.69343e-06       24
     1   109.470   0.000234506        8
   27900    320.58697   -57.989291            0   -43.655158    20.321831    26128.208 
SHAKE stats (type/ave/delta/count) on step 28000
     1   1.00004   5.42098e-06       24
     1   109.470   0.000246580        8
   28000    235.50374    -51.53563            0   -41.005751    12.913912    25996.044 
SHAKE stats (type/ave/delta/count) on step 28100
     1   1.00003   3.86487e-07       24
     1   109.470   5.65984e-05        8
   28100    363.09991    -55.47044            0   -39.235463   -27.982273    26194.067 
SHAKE stats (type/ave/delta/count) on step 28200
     1   1.00007   9.50826e-06       24
     1   109.470   0.000296327        8
   28200     288.0224   -56.037626            0   -43.159525   -1.9602882    26403.958 
SHAKE stats (type/ave/delta/count) on step 28300
     1   1.00001   3.64874e-07       24
     1   109.470   2.95665e-05        8
   28300    218.85823   -53.274073            0   -43.488451   -26.262964    26354.317 
SHAKE stats (type/ave/delta/count) on step 28400
     1   1.00005   3.39171e-06       24
     1   109.470   0.000172042        8
   28400    265.04677   -51.910237            0   -40.059426     12.07877    26314.338 
SHAKE stats (type/ave/delta/count) on step 28500
     1   0.999958  4.81319e-07       24
     1   109.470   2.43743e-05        8
   28500    438.53126   -57.635593            0   -38.027918    14.191694    26280.809 
SHAKE stats (type/ave/delta/count) on step 28600
     1   0.999969  1.42972e-06       24
     1   109.470   3.43483e-05        8
   28600    321.89001    -55.50242            0   -41.110026   -6.6201655    26298.314 
SHAKE stats (type/ave/delta/count) on step 28700
     1   1.00000   5.21086e-06       24
     1   109.470   0.000324813        8
   28700    344.58079     -58.3074            0   -42.900451   -50.393257    26354.708 
SHAKE stats (type/ave/delta/count) on step 28800
     1   0.999994  1.10192e-06       24
     1   109.470   7.05054e-05        8
   28800     286.7947   -56.766162            0   -43.942954   -46.461968     26443.66 
SHAKE stats (type/ave/delta/count) on step 28900
     1   1.00000   6.87303e-07       24
     1   109.470   9.32294e-05        8
   28900    287.56475   -55.687094            0   -42.829455  -0.53003997    26313.583 
SHAKE stats (type/ave/delta/count) on step 29000
     1   1.00002   2.58990e-07       24
     1   109.470   1.65662e-05        8
   29000    219.08435   -53.532193            0    -43.73646   -57.602475     26502.04 
SHAKE stats (type/ave/delta/count) on step 29100
     1   1.00006   3.97038e-06       24
     1   109.470   0.000514032        8
   29100    331.57875   -58.175885            0   -43.350286      10.2924    26118.714 
SHAKE stats (type/ave/delta/count) on step 29200
     1   0.999932  3.58813e-06       24
     1   109.470   0.000358093        8
   29200    304.12434   -56.501112            0   -42.903058   -41.924013    26101.091 
SHAKE stats (type/ave/delta/count) on step 29300
     1   0.999994  1.79765e-06       24
     1   109.470   0.000198469        8
   29300    243.51262   -53.021342            0    -42.13337   -18.408864    26197.623 
SHAKE stats (type/ave/delta/count) on step 29400
     1   0.999975  5.48189e-06       24
     1   109.470   0.000458365        8
   29400    304.13088   -57.936806            0    -44.33846    25.519045    26092.114 
SHAKE stats (type/ave/delta/count) on step 29500
     1   1.00005   5.33327e-07       24
     1   109.470   3.65671e-05        8
   29500    268.93679   -58.081396            0   -46.056653    3.2994619    26196.021 
SHAKE stats (type/ave/delta/count) on step 29600
     1   0.999970  7.94823e-06       24
     1   109.470   0.000515002        8
   29600    247.90845   -54.190315            0   -43.105795   -5.6079272    26172.084 
SHAKE stats (type/ave/delta/count) on step 29700
     1   1.00004   6.03407e-07       24
     1   109.470   3.28405e-05        8
   29700    306.57461   -53.142435            0   -39.434825    37.125811    25777.331 
SHAKE stats (type/ave/delta/count) on step 29800
     1   1.00009   1.17423e-06       24
     1   109.470   6.82889e-05        8
   29800     263.8084   -53.228189            0   -41.432748    -20.07057    26125.479 
SHAKE stats (type/ave/delta/count) on step 29900
     1   1.00016   3.37607e-06       24
     1   109.470   0.000341012        8
   29900    296.34871   -56.348534            0   -43.098145    17.712645    26520.689 
SHAKE stats (type/ave/delta/count) on step 30000
     1   1.00005   1.31364e-06       24
     1   109.470   6.39077e-05        8
   30000    237.14285   -54.597546            0   -43.994379    80.455485     26613.69 
SHAKE stats (type/ave/delta/count) on step 30100
     1   0.999921  5.62252e-07       24
     1   109.470   2.74584e-05        8
   30100    266.31149   -55.116778            0   -43.209418    40.378022    26590.198 
SHAKE stats (type/ave/delta/count) on step 30200
     1   0.999956  3.62218e-06       24
     1   109.470   0.000262043        8
   30200    343.19855   -57.282212            0   -41.937066     15.56708    26513.415 
SHAKE stats (type/ave/delta/count) on step 30300
     1   1.00004   2.02495e-06       24
     1   109.470   0.000189634        8
   30300    250.23552   -51.698394            0   -40.509826    20.799303    26361.942 
SHAKE stats (type/ave/delta/count) on step 30400
     1   1.00003   2.31731e-06       24
     1   109.470   0.000124515        8
   30400    172.88697   -48.119897            0   -40.389749    74.967152    26284.309 
SHAKE stats (type/ave/delta/count) on step 30500
     1   1.00003   6.73280e-07       24
     1   109.470   5.76846e-05        8
   30500    177.76085   -48.363525            0   -40.415455    37.694616    26425.256 
SHAKE stats (type/ave/delta/count) on step 30600
     1   1.00006   1.49365e-06       24
     1   109.470   8.35930e-05        8
   30600    319.50774   -53.491466            0   -39.205588    8.6749187    26305.988 
SHAKE stats (type/ave/delta/count) on step 30700
     1   0.999928  2.20387e-06       24
     1   109.470   7.51344e-05        8
   30700    272.13173   -50.858937            0   -38.691342    68.295891    26072.325 
SHAKE stats (type/ave/delta/count) on step 30800
     1   1.00011   3.28947e-06       24
     1   109.470   0.000444645        8
   30800    300.44015   -51.897386            0   -38.464061    2.5449039    26455.385 
SHAKE stats (type/ave/delta/count) on step 30900
     1   1.00005   4.15254e-07       24
     1   109.470   4.45529e-05        8
   30900    297.77069   -48.700933            0   -35.386965   -46.824268    26462.009 
SHAKE stats (type/ave/delta/count) on step 31000
     1   1.00013   7.02922e-06       24
     1   109.470   0.000654456        8
   31000    362.19541   -54.717382            0   -38.522846   -33.225636     26359.45 
SHAKE stats (type/ave/delta/count) on step 31100
     1   1.00002   2.72411e-06       24
     1   109.470   0.000160521        8
   31100    352.57796   -56.600307            0   -40.835788    12.945573     26459.16 
SHAKE stats (type/ave/delta/count) on step 31200
     1   1.00008   9.88290e-07       24
     1   109.470   9.13762e-05        8
   31200    271.50391   -55.967501            0   -43.827977   -50.126265    26718.404 
SHAKE stats (type/ave/delta/count) on step 31300
     1   1.00020   3.13059e-06       24
     1   109.470   0.000227110        8
   31300    301.40998   -57.379197            0   -43.902509    21.231033    26242.321 
SHAKE stats (type/ave/delta/count) on step 31400
     1   1.00016   3.33092e-06       24
     1   109.470   0.000359141        8
   31400    364.44019    -61.11918            0   -44.824276   -10.641119    26572.889 
SHAKE stats (type/ave/delta/count) on step 31500
     1   1.00004   2.11046e-06       24
     1   109.470   9.65191e-05        8
   31500    286.37688   -57.615569            0   -44.811043    6.7022732    26534.368 
SHAKE stats (type/ave/delta/count) on step 31600
     1   0.999973  5.05723e-06       24
     1   109.470   0.000335262        8
   31600    282.69789   -54.964862            0   -42.324831   -60.605239    26804.982 
SHAKE stats (type/ave/delta/count) on step 31700
     1   0.999932  8.39551e-07       24
     1   109.470   7.25931e-05        8
   31700    321.50736   -56.834955            0    -42.45967   -12.378032      26746.1 
SHAKE stats (type/ave/delta/count) on step 31800
     1   0.999867  2.69827e-06       24
     1   109.470   0.000131338        8
   31800    366.89956   -59.451306            0   -43.046437    10.350118    26163.165 
SHAKE stats (type/ave/delta/count) on step 31900
     1   1.00005   2.04969e-06       24
     1   109.470   0.000176594        8
   31900    318.20255    -59.86443            0    -45.63691    2.4961693    26395.749 
SHAKE stats (type/ave/delta/count) on step 32000
     1   0.999968  2.96757e-06       24
     1   109.470   5.44080e-05        8
   32000    252.17176   -55.915068            0   -44.639926   -6.7104266    26707.722 
SHAKE stats (type/ave/delta/count) on step 32100
     1   1.00005   1.82049e-06       24
     1   109.470   0.000164747        8
   32100    330.36153   -56.113874            0   -41.342699    21.039823    27200.741 
SHAKE stats (type/ave/delta/count) on step 32200
     1   1.00004   2.05949e-06       24
     1   109.470   0.000248718        8
   32200    276.60475   -55.794844            0   -43.427251    51.649654    26778.927 
SHAKE stats (type/ave/delta/count) on step 32300
     1   1.00000   1.98463e-06       24
     1   109.470   0.000117541        8
   32300      218.819   -50.584784            0   -40.800916   -6.9070988    26939.101 
SHAKE stats (type/ave/delta/count) on step 32400
     1   0.999998  5.57612e-06       24
     1   109.470   0.000110107        8
   32400    270.90505   -48.720122            0   -36.607374   0.45842911    26870.064 
SHAKE stats (type/ave/delta/count) on step 32500
     1   0.999954  2.13897e-06       24
     1   109.470   0.000308458        8
   32500    303.96332   -48.767964            0   -35.177111   -32.512066    26977.776 
SHAKE stats (type/ave/delta/count) on step 32600
     1   0.999974  5.95094e-07       24
     1   109.470   4.58248e-05        8
   32600    274.80124   -45.934122            0   -33.647168   -21.925219    26643.897 
SHAKE stats (type/ave/delta/count) on step 32700
     1   0.999850  9.07834e-07       24
     1   109.470   9.42233e-05        8
   32700    331.14357   -48.217073            0   -33.410932   -2.5315413     25905.08 
SHAKE stats (type/ave/delta/count) on step 32800
     1   0.999990  1.81389e-06       24
     1   109.470   0.000111181        8
   32800      303.645   -46.185477            0   -32.608856    35.296957    25522.158 
SHAKE stats (type/ave/delta/count) on step 32900
     1   0.999937  1.80616e-06       24
     1   109.470   9.03182e-05        8
   32900     315.5649   -47.192395            0   -33.082809   -32.710214    25482.161 
SHAKE stats (type/ave/delta/count) on step 33000
     1   0.999968  5.08526e-06       24
     1   109.470   0.000289850        8
   33000    351.30128   -51.317837            0   -35.610401   -50.696631    25162.758 
SHAKE stats (type/ave/delta/count) on step 33100
     1   0.999912  5.08001e-06       24
     1   109.470   0.000204710        8
   33100    238.96365   -48.468181            0   -37.783603     2.187133    24928.425 
SHAKE stats (type/ave/delta/count) on step 33200
     1   0.999960  9.55385e-07       24
[...]
     1   0.999922  2.51744e-06       24
     1   109.470   0.000392977        8
   51700    282.85571   -56.642671            0   -43.995584   -33.457814    24133.773 
SHAKE stats (type/ave/delta/count) on step 51800
     1   1.00004   2.67349e-06       24
     1   109.470   0.000346417        8
   51800    296.42066   -56.334297            0   -43.080692   -5.9038655    23931.093 
SHAKE stats (type/ave/delta/count) on step 51900
     1   0.999881  1.82858e-07       24
     1   109.470   2.04532e-05        8
   51900    334.58746   -56.543977            0   -41.583852   -16.394026    23751.041 
SHAKE stats (type/ave/delta/count) on step 52000
     1   0.999928  2.40070e-06       24
     1   109.470   0.000205987        8
   52000    292.61733   -56.485963            0   -43.402413    25.429069    23751.207 
SHAKE stats (type/ave/delta/count) on step 52100
     1   0.999952  4.00661e-06       24
     1   109.470   0.000285383        8
   52100    206.90792   -51.497339            0   -42.246041   -31.559571    24091.945 
SHAKE stats (type/ave/delta/count) on step 52200
     1   0.999982  1.76665e-06       24
     1   109.470   0.000102538        8
   52200    227.16344   -51.861716            0    -41.70475   -40.628989    24151.089 
SHAKE stats (type/ave/delta/count) on step 52300
     1   1.00007   1.01705e-06       24
     1   109.470   0.000126674        8
   52300    289.57081   -53.264763            0   -40.317429   -3.8301818    24089.565 
SHAKE stats (type/ave/delta/count) on step 52400
     1   1.00004   1.17848e-06       24
     1   109.470   0.000108471        8
   52400    323.86347   -55.780991            0   -41.300359   -30.214241    24429.353 
SHAKE stats (type/ave/delta/count) on step 52500
     1   0.999998  2.33972e-06       24
     1   109.470   0.000106427        8
   52500    266.68352   -54.993445            0   -43.069452    51.706595    24228.501 
SHAKE stats (type/ave/delta/count) on step 52600
     1   0.999960  6.19387e-07       24
     1   109.470   4.55224e-05        8
   52600    411.29143   -62.241817            0   -43.852092   -35.937371    24115.759 
SHAKE stats (type/ave/delta/count) on step 52700
     1   1.00006   7.25063e-06       24
     1   109.470   0.000536193        8
   52700    307.22177   -57.066184            0   -43.329638   -15.517226    23958.248 
SHAKE stats (type/ave/delta/count) on step 52800
     1   1.00006   4.76415e-07       24
     1   109.470   5.40795e-05        8
   52800    344.77665   -55.841317            0   -40.425612    1.1373504     24165.11 
SHAKE stats (type/ave/delta/count) on step 52900
     1   1.00008   1.89518e-06       24
     1   109.470   0.000190755        8
   52900    426.98988    -59.19787            0   -40.106234   -8.4508166     24312.06 
SHAKE stats (type/ave/delta/count) on step 53000
     1   1.00003   2.36498e-06       24
     1   109.470   6.46247e-05        8
   53000    255.07019    -55.22939            0   -43.824653    63.712236    24138.222 
SHAKE stats (type/ave/delta/count) on step 53100
     1   1.00004   1.15679e-06       24
     1   109.470   6.45393e-05        8
   53100    334.47819    -59.29884            0   -44.343601   -7.8718148    24248.995 
SHAKE stats (type/ave/delta/count) on step 53200
     1   1.00008   4.87759e-07       24
     1   109.470   2.63985e-05        8
   53200    302.90801   -58.733092            0   -45.189423    -35.51954    24116.242 
SHAKE stats (type/ave/delta/count) on step 53300
     1   1.00007   7.70456e-07       24
     1   109.470   8.09193e-05        8
   53300    317.73832   -57.884504            0    -43.67774    -2.925599    23757.162 
SHAKE stats (type/ave/delta/count) on step 53400
     1   0.999935  5.06050e-07       24
     1   109.470   7.63568e-05        8
   53400     356.0587   -57.776375            0   -41.856225   -1.0622218    23809.237 
SHAKE stats (type/ave/delta/count) on step 53500
     1   1.00002   1.40525e-06       24
     1   109.470   0.000114331        8
   53500    266.75311   -54.767911            0   -42.840805   -18.304112    23835.832 
SHAKE stats (type/ave/delta/count) on step 53600
     1   0.999971  3.38871e-06       24
     1   109.470   0.000301510        8
   53600    298.89754   -56.576497            0   -43.212145   -47.925431    24013.816 
SHAKE stats (type/ave/delta/count) on step 53700
     1   0.999961  2.64062e-06       24
     1   109.470   0.000252070        8
   53700    311.51102   -56.787876            0   -42.859548   -27.642853    24226.353 
SHAKE stats (type/ave/delta/count) on step 53800
     1   0.999968  1.02597e-06       24
     1   109.470   5.21776e-05        8
   53800    358.64106   -58.651881            0   -42.616268   -13.536269    24235.166 
SHAKE stats (type/ave/delta/count) on step 53900
     1   0.999987  1.96262e-06       24
     1   109.470   0.000196304        8
   53900    287.61536   -56.344403            0   -43.484502    22.052088    24132.973 
SHAKE stats (type/ave/delta/count) on step 54000
     1   0.999954  4.14919e-07       24
     1   109.470   4.05181e-05        8
   54000    322.62753   -59.241083            0   -44.815712    66.535402     24169.01 
SHAKE stats (type/ave/delta/count) on step 54100
     1   0.999958  7.00171e-06       24
     1   109.470   0.000683142        8
   54100    391.59536    -60.72476            0   -43.215689     8.773817    24221.209 
SHAKE stats (type/ave/delta/count) on step 54200
     1   0.999990  1.37486e-06       24
     1   109.470   0.000172014        8
   54200     345.6283   -57.696209            0   -42.242425    36.628232    23957.723 
SHAKE stats (type/ave/delta/count) on step 54300
     1   1.00002   1.29643e-06       24
     1   109.470   0.000132666        8
   54300    297.85166   -55.792577            0   -42.474988   -7.1377428    23973.533 
SHAKE stats (type/ave/delta/count) on step 54400
     1   1.00004   2.34193e-06       24
     1   109.470   0.000253944        8
   54400    257.47859    -55.22569            0   -43.713269    22.530989      23947.5 
SHAKE stats (type/ave/delta/count) on step 54500
     1   0.999992  1.24051e-06       24
     1   109.470   6.54185e-05        8
   54500     304.5862   -57.690142            0   -44.071438   -43.926869    24261.882 
SHAKE stats (type/ave/delta/count) on step 54600
     1   0.999952  2.13654e-06       24
     1   109.470   0.000233970        8
   54600    340.21238   -58.796153            0   -43.584526   -17.271888    24075.572 
SHAKE stats (type/ave/delta/count) on step 54700
     1   1.00001   6.77051e-07       24
     1   109.470   8.61339e-05        8
   54700    261.06969   -54.972157            0    -43.29917    -27.78107    24052.594 
SHAKE stats (type/ave/delta/count) on step 54800
     1   0.999955  1.29232e-06       24
     1   109.470   0.000166634        8
   54800    371.40526   -59.069955            0   -42.463627   -4.2337613    23881.523 
SHAKE stats (type/ave/delta/count) on step 54900
     1   1.00001   2.27539e-06       24
     1   109.470   0.000166108        8
   54900    328.43723    -57.82643            0   -43.141295    48.536049    23705.364 
SHAKE stats (type/ave/delta/count) on step 55000
     1   1.00004   5.30759e-06       24
     1   109.470   0.000114044        8
   55000    334.48548    -57.23418            0   -42.278614   -12.816252    23915.543 
SHAKE stats (type/ave/delta/count) on step 55100
     1   1.00005   2.09639e-06       24
     1   109.470   0.000106313        8
   55100    232.93129   -53.177101            0   -42.762242     25.95232    24065.635 
SHAKE stats (type/ave/delta/count) on step 55200
     1   0.999981  4.03453e-06       24
     1   109.470   0.000208822        8
   55200    296.51013   -54.327549            0   -41.069944    40.138611    23971.327 
SHAKE stats (type/ave/delta/count) on step 55300
     1   0.999881  6.91172e-07       24
     1   109.470   8.06766e-05        8
   55300    308.22225   -54.708495            0   -40.927215   -3.3377946    23833.786 
SHAKE stats (type/ave/delta/count) on step 55400
     1   0.999924  2.38787e-06       24
     1   109.470   6.73633e-05        8
   55400    301.50923   -55.492666            0    -42.01154   -26.782679    23843.535 
SHAKE stats (type/ave/delta/count) on step 55500
     1   1.00008   9.24792e-07       24
     1   109.470   4.38434e-05        8
   55500     302.0248   -54.846111            0   -41.341933    4.3383917    23920.048 
SHAKE stats (type/ave/delta/count) on step 55600
     1   1.00011   1.63234e-07       24
     1   109.470   1.09555e-05        8
   55600    248.83261   -51.771134            0   -40.645292   -51.442692    24317.659 
SHAKE stats (type/ave/delta/count) on step 55700
     1   1.00004   1.50075e-06       24
     1   109.470   0.000132357        8
   55700    271.26571   -49.459974            0   -37.331101    5.1001561     24226.35 
SHAKE stats (type/ave/delta/count) on step 55800
     1   1.00011   7.60802e-06       24
     1   109.470   0.000367758        8
   55800    417.32866    -60.38912            0   -41.729458    73.718469    23609.553 
SHAKE stats (type/ave/delta/count) on step 55900
     1   1.00009   1.04840e-06       24
     1   109.470   8.00530e-05        8
   55900    291.49094    -57.56394            0   -44.530754    29.797268    24240.526 
SHAKE stats (type/ave/delta/count) on step 56000
     1   0.999895  1.06689e-06       24
     1   109.470   0.000131648        8
   56000    312.38284   -58.956261            0   -44.988952   -10.208798     23900.24 
SHAKE stats (type/ave/delta/count) on step 56100
     1   1.00004   5.04497e-07       24
     1   109.470   4.90999e-05        8
   56100    281.67779   -59.318365            0   -46.723945   -22.064516    23535.382 
SHAKE stats (type/ave/delta/count) on step 56200
     1   0.999979  2.79349e-06       24
     1   109.470   0.000214655        8
   56200    224.28736   -52.691532            0   -42.663162   -13.802498    23545.056 
SHAKE stats (type/ave/delta/count) on step 56300
     1   1.00002   3.37277e-06       24
     1   109.470   0.000321811        8
   56300    298.50852   -54.989387            0   -41.642429    1.1404853    23730.253 
SHAKE stats (type/ave/delta/count) on step 56400
     1   0.999992  2.28885e-06       24
     1   109.470   0.000169884        8
   56400    300.80422   -55.715162            0   -42.265558   -31.173321    23902.785 
SHAKE stats (type/ave/delta/count) on step 56500
     1   0.999982  2.00038e-06       24
     1   109.470   7.55830e-05        8
   56500    309.39148   -57.358702            0   -43.525144   -27.424945     23924.39 
SHAKE stats (type/ave/delta/count) on step 56600
     1   0.999957  7.03272e-06       24
     1   109.470   0.000250468        8
   56600    230.86651   -52.893512            0   -42.570974   -15.889225    23918.898 
SHAKE stats (type/ave/delta/count) on step 56700
     1   0.999939  2.97437e-06       24
     1   109.470   0.000149517        8
   56700    249.99481   -51.787756            0    -40.60995    43.927351    23889.229 
SHAKE stats (type/ave/delta/count) on step 56800
     1   1.00002   2.11098e-06       24
     1   109.470   0.000109407        8
   56800     282.7644   -50.909343            0   -38.266338    15.513292    24000.285 
SHAKE stats (type/ave/delta/count) on step 56900
     1   1.00006   6.42777e-06       24
     1   109.470   0.000713747        8
   56900    427.35906   -59.003388            0   -39.895245   -45.158623     24180.72 
SHAKE stats (type/ave/delta/count) on step 57000
     1   0.999970  2.81657e-06       24
     1   109.470   0.000138113        8
   57000    328.96179   -57.280859            0    -42.57227  -0.65530427    24293.883 
SHAKE stats (type/ave/delta/count) on step 57100
     1   1.00000   4.04636e-06       24
     1   109.470   0.000428780        8
   57100    250.15454   -53.865709            0   -42.680762    4.2630903    24246.548 
SHAKE stats (type/ave/delta/count) on step 57200
     1   0.999948  2.90538e-06       24
     1   109.470   7.68401e-05        8
   57200    423.98319   -59.075119            0   -40.117919    -14.00887    23852.714 
SHAKE stats (type/ave/delta/count) on step 57300
     1   0.999885  4.34000e-06       24
     1   109.470   0.000274306        8
   57300    305.53514   -54.292592            0   -40.631459   -30.247224    23750.697 
SHAKE stats (type/ave/delta/count) on step 57400
     1   1.00001   3.72580e-06       24
     1   109.470   9.25163e-05        8
   57400    279.27134   -52.834547            0   -40.347725   0.11660227     23488.14 
SHAKE stats (type/ave/delta/count) on step 57500
     1   1.00003   2.22272e-06       24
     1   109.470   0.000161448        8
   57500    292.50707   -53.279555            0   -40.200935    9.1151812    23523.791 
SHAKE stats (type/ave/delta/count) on step 57600
     1   1.00011   1.61776e-06       24
     1   109.470   0.000100203        8
   57600     306.5325   -57.297285            0   -43.591558   -37.563724    23608.306 
SHAKE stats (type/ave/delta/count) on step 57700
     1   1.00005   8.53588e-07       24
     1   109.470   3.57424e-05        8
   57700    250.96604   -55.451532            0     -44.2303    -3.628493    23779.556 
SHAKE stats (type/ave/delta/count) on step 57800
     1   0.999923  2.68400e-06       24
     1   109.470   4.40084e-05        8
   57800    309.45703   -58.371059            0    -44.53457   -13.257554    23950.071 
SHAKE stats (type/ave/delta/count) on step 57900
     1   0.999974  5.44514e-07       24
     1   109.470   8.48739e-05        8
   57900    329.54354   -59.641593            0   -44.906992   -32.749905    23696.173 
SHAKE stats (type/ave/delta/count) on step 58000
     1   1.00002   2.35304e-06       24
     1   109.470   0.000106726        8
   58000    252.05165   -56.873562            0   -45.603791   -22.851509    24056.017 
SHAKE stats (type/ave/delta/count) on step 58100
     1   0.999966  9.95764e-07       24
     1   109.470   7.79168e-05        8
   58100    300.59316   -58.367664            0   -44.927498   -37.801898    23932.681 
SHAKE stats (type/ave/delta/count) on step 58200
     1   1.00004   1.72035e-06       24
     1   109.470   0.000111565        8
   58200    399.44201   -62.673224            0   -44.813313    37.969012    23880.428 
SHAKE stats (type/ave/delta/count) on step 58300
     1   1.00001   1.20139e-06       24
     1   109.470   3.91238e-05        8
   58300     262.5108   -56.593793            0   -44.856371    19.376594    24062.749 
SHAKE stats (type/ave/delta/count) on step 58400
     1   0.999953  1.10691e-06       24
     1   109.470   8.98269e-05        8
   58400    323.55688   -59.022153            0   -44.555229   -36.366054    23917.225 
SHAKE stats (type/ave/delta/count) on step 58500
     1   0.999913  1.97835e-06       24
     1   109.470   0.000308826        8
   58500    203.90344   -52.642075            0   -43.525114   -24.507356    23756.575 
SHAKE stats (type/ave/delta/count) on step 58600
     1   0.999971  3.47321e-06       24
     1   109.470   0.000299616        8
   58600    311.74187   -57.281529            0   -43.342879   -18.789959     23688.46 
SHAKE stats (type/ave/delta/count) on step 58700
     1   1.00006   3.89292e-06       24
     1   109.470   0.000244976        8
   58700    316.02659   -58.816094            0   -44.685866    10.588171    23829.086 
SHAKE stats (type/ave/delta/count) on step 58800
     1   0.999993  3.21226e-06       24
     1   109.470   0.000114939        8
   58800    288.97855   -57.340648            0   -44.419796    -12.47576      24006.2 
SHAKE stats (type/ave/delta/count) on step 58900
     1   1.00002   1.15838e-06       24
     1   109.470   7.48208e-05        8
   58900    216.55113    -55.13619            0   -45.453723    72.334107    23687.053 
SHAKE stats (type/ave/delta/count) on step 59000
     1   1.00010   1.11718e-06       24
     1   109.470   6.26456e-05        8
   59000    239.84804   -56.267842            0   -45.543721    26.745721    24070.096 
SHAKE stats (type/ave/delta/count) on step 59100
     1   1.00001   3.36464e-07       24
     1   109.470   3.62343e-05        8
   59100    247.56491   -56.039996            0   -44.970837    21.755214    24170.827 
SHAKE stats (type/ave/delta/count) on step 59200
     1   0.999954  4.32292e-06       24
     1   109.470   5.86853e-05        8
   59200     364.2533   -61.851717            0   -45.565169     24.55478     24015.98 
SHAKE stats (type/ave/delta/count) on step 59300
     1   1.00002   7.79721e-07       24
     1   109.470   5.29258e-05        8
   59300     300.8323   -57.117263            0   -43.666403    34.664206    24059.805 
SHAKE stats (type/ave/delta/count) on step 59400
     1   0.999990  1.28729e-06       24
     1   109.470   7.98004e-05        8
   59400    244.62674   -54.370958            0    -43.43317    -21.40653    24227.607 
SHAKE stats (type/ave/delta/count) on step 59500
     1   0.999951  2.37481e-06       24
     1   109.470   0.000217597        8
   59500    265.05582   -58.177079            0   -46.325863   -19.499847    24133.187 
SHAKE stats (type/ave/delta/count) on step 59600
     1   0.999933  5.09012e-07       24
     1   109.470   4.48139e-05        8
   59600    389.20074   -63.401406            0   -45.999403   -38.752869    23781.832 
SHAKE stats (type/ave/delta/count) on step 59700
     1   0.999899  8.94953e-07       24
     1   109.470   3.64832e-05        8
   59700    326.33254   -61.348822            0   -46.757792   -39.986383    23573.387 
SHAKE stats (type/ave/delta/count) on step 59800
     1   1.00003   2.71261e-06       24
     1   109.470   0.000300348        8
   59800    220.39402   -57.488687            0   -47.634397    23.395018    23634.793 
SHAKE stats (type/ave/delta/count) on step 59900
     1   0.999975  3.61101e-06       24
     1   109.470   0.000174825        8
   59900    311.10069   -58.069411            0    -44.15943    -12.17912    23720.608 
SHAKE stats (type/ave/delta/count) on step 60000
     1   0.999978  7.66922e-07       24
     1   109.470   4.67628e-05        8
   60000    331.94928   -58.843034            0   -44.000867   -26.163683     23802.02 
   60043    289.25362   -57.495378            0   -44.562227       28.212    23795.477 
Loop time of 5.22654 on 1 procs for 50000 steps with 24 atoms

Performance: 1653.103 ns/day, 0.015 hours/ns, 9566.566 timesteps/s
98.6% CPU use with 1 MPI tasks x no OpenMP threads

MPI task timing breakdown:
Section |  min time  |  avg time  |  max time  |%varavg| %total
---------------------------------------------------------------
Pair    | 0.15104    | 0.15104    | 0.15104    |   0.0 |  2.89
Bond    | 0.00202    | 0.00202    | 0.00202    |   0.0 |  0.04
Kspace  | 2.4901     | 2.4901     | 2.4901     |   0.0 | 47.64
Neigh   | 0.011906   | 0.011906   | 0.011906   |   0.0 |  0.23
Comm    | 0.031381   | 0.031381   | 0.031381   |   0.0 |  0.60
Output  | 0.015791   | 0.015791   | 0.015791   |   0.0 |  0.30
Modify  | 2.5139     | 2.5139     | 2.5139     |   0.0 | 48.10
Other   |            | 0.01035    |            |       |  0.20

Nlocal:        24.0000 ave          24 max          24 min
Histogram: 1 0 0 0 0 0 0 0 0 0
Nghost:        168.000 ave         168 max         168 min
Histogram: 1 0 0 0 0 0 0 0 0 0
Neighs:        276.000 ave         276 max         276 min
Histogram: 1 0 0 0 0 0 0 0 0 0

Total # of neighbors = 276
Ave neighs/atom = 11.500000
Ave special neighs/atom = 2.0000000
Neighbor list builds = 2609
Dangerous builds = 42

write_data   system_after_npt.data
System init for write_data ...
PPPM initialization ...
  using 12-bit tables for long-range coulomb (../kspace.cpp:340)
  G vector (1/distance) = 0.21851632
  grid = 9 9 9
  stencil order = 5
  estimated absolute RMS force accuracy = 0.028589435
  estimated relative force accuracy = 8.6096235e-05
  using double precision FFTW3
  3d grid and FFT values/proc = 2744 729
Total wall time: 0:00:06
