LAMMPS Description

     24  atoms
     16  bonds
     8  angles
     0  dihedrals
     0  impropers

     2  atom types
     1  bond types
     1  angle types
     0  dihedral types
     0  improper types

  0.0 31.0342 xlo xhi
  0.0 31.0342 ylo yhi
  0.0 31.0342 zlo zhi

Masses

1 15.9994  # Oxygen
2 1.008  # Hydrogen

Atoms  # full

1 1 1 -0.8476 0.0 0.0 0.0
2 1 2 0.4238 0.8164904 0.0 0.577359
3 1 2 0.4238 -0.8164904 0.0 0.577359
4 2 1 -0.8476 3.10342 0.01 0.01
5 2 2 0.4238 3.9199104 0.01 0.587359
6 2 2 0.4238 2.2869295999999997 0.01 0.587359
7 3 1 -0.8476 0.0 3.10342 0.01
8 3 2 0.4238 0.8164904 3.10342 0.587359
9 3 2 0.4238 -0.8164904 3.10342 0.587359
10 4 1 -0.8476 3.10342 3.1134199999999996 0.02
11 4 2 0.4238 3.9199104 3.1134199999999996 0.597359
12 4 2 0.4238 2.2869295999999997 3.1134199999999996 0.597359
13 5 1 -0.8476 0.0 0.0 3.10342
14 5 2 0.4238 0.8164904 0.0 3.680779
15 5 2 0.4238 -0.8164904 0.0 3.680779
16 6 1 -0.8476 3.10342 0.01 3.1134199999999996
17 6 2 0.4238 3.9199104 0.01 3.6907789999999996
18 6 2 0.4238 2.2869295999999997 0.01 3.6907789999999996
19 7 1 -0.8476 0.0 3.10342 3.1134199999999996
20 7 2 0.4238 0.8164904 3.10342 3.6907789999999996
21 7 2 0.4238 -0.8164904 3.10342 3.6907789999999996
22 8 1 -0.8476 3.10342 3.1134199999999996 3.1234199999999994
23 8 2 0.4238 3.9199104 3.1134199999999996 3.7007789999999994
24 8 2 0.4238 2.2869295999999997 3.1134199999999996 3.7007789999999994

Bonds

1 1 1 2
2 1 1 3
3 1 4 5
4 1 4 6
5 1 7 8
6 1 7 9
7 1 10 11
8 1 10 12
9 1 13 14
10 1 13 15
11 1 16 17
12 1 16 18
13 1 19 20
14 1 19 21
15 1 22 23
16 1 22 24

Angles

1 1 2 1 3
2 1 5 4 6
3 1 8 7 9
4 1 11 10 12
5 1 14 13 15
6 1 17 16 18
7 1 20 19 21
8 1 23 22 24

