LAMMPS data file via write_data, version 29 Sep 2021, timestep = 60043

24 atoms
2 atom types
16 bonds
1 bond types
8 angles
1 angle types

1.1356897281520357 29.89851027184838 xlo xhi
1.1356897281520357 29.89851027184838 ylo yhi
1.1356897281520357 29.89851027184838 zlo zhi

Masses

1 15.9994
2 1.008

Pair Coeffs # lj/charmm/coul/long

1 0.1553 3.166 0.1553 3.166
2 0 0 0 0

Bond Coeffs # harmonic

1 600 1

Angle Coeffs # harmonic

1 75 109.47

Atoms # full

12 4 2 0.4238 2.9020534109635516 1.7801071518146814 4.663577847658605 0 0 0
2 1 2 0.4238 2.441860967954633 5.387549620358558 1.4699042471337234 0 0 0
4 2 1 -0.8476 3.053907267701503 3.07201318520306 3.882629671670638 0 0 0
1 1 1 -0.8476 2.5275546847676704 6.377980851473982 1.5787127244639125 0 0 0
15 5 2 0.4238 1.3725862004304332 3.482159437094889 1.8233687549559354 0 0 0
6 2 2 0.4238 3.0226047239161193 3.159475916900052 2.886884850338398 0 0 0
3 1 2 0.4238 2.026891279719391 6.838419749746911 29.60841106009108 0 0 -1
5 2 2 0.4238 3.42586896422424 3.9112547631999672 4.279436246945336 0 0 0
19 7 1 -0.8476 3.0907041895037897 5.755661636427766 4.671833841551178 0 0 0
20 7 2 0.4238 3.2959876546779223 6.079894621558592 3.7483246698964043 0 0 0
21 7 2 0.4238 2.8877626916357677 6.537077501255835 5.262038325419865 0 0 0
11 4 2 0.4238 2.7683491688270845 1.2320376918142966 6.196136760540484 0 0 0
8 3 2 0.4238 1.9661853585808116 28.82458527528211 4.272261937743147 0 -1 0
7 3 1 -0.8476 1.5180874517107974 28.30834569163293 3.5423008611077735 0 -1 0
23 8 2 0.4238 2.6867924305348696 28.403944751472487 2.0929977266012063 0 -1 0
22 8 1 -0.8476 3.483629780786923 28.816172429777545 1.6511194906656108 0 -1 0
24 8 2 0.4238 4.297147494664212 28.64974574266745 2.208460066214716 0 -1 0
10 4 1 -0.8476 2.8599695844267616 29.725032061905615 5.2375246870530905 0 -1 0
9 3 2 0.4238 29.6826095364813 27.614643764286676 3.9434917950683364 -1 -1 0
16 6 1 -0.8476 1.7241560581681612 1.1947148057030694 28.3513882582374 0 0 -1
13 5 1 -0.8476 2.167451153668422 3.6632948605492612 1.244130563079061 0 0 0
14 5 2 0.4238 2.1876060255866285 3.0059527171727543 29.253537365141106 0 0 -1
17 6 2 0.4238 1.533915478963072 29.28870487746797 27.632630987837736 0 -1 -1
18 6 2 0.4238 2.3812827311599527 29.57252142162109 28.99952912315107 0 -1 -1

Velocities

12 -0.0024474977713278907 -0.009215173201034736 -0.005872537662560858
2 0.005402545174072509 0.0013866876306988837 -0.03247378500958579
4 -0.007110139128350833 0.0018307388016086566 0.0034555819278195015
1 0.0029195273553818415 -0.0020502148652354274 0.0007662224311305185
15 -0.009501592715275163 0.020365106057940497 -0.003990603084204979
6 -0.02395980218315895 -0.009074419476825572 0.0030274023300512734
3 0.035929026758416166 0.020931632982768414 -0.00734280987101245
5 -0.018300732571958484 0.013540313828588 -0.01082011422719831
19 -0.0015964380019521383 0.0003705527951010128 -0.0014804626078820096
20 -0.0006818023879133554 0.012357402936976822 0.002931287591347032
21 -0.017214656183297938 -0.008381139250594674 0.0047362411229908185
11 0.008692389474704503 0.01195266614290987 0.002669317629455603
8 -0.005932536824709338 -0.004835415194487879 0.005493455760933194
7 8.453882697802432e-05 -0.0010326493409634151 -0.0008895931646547215
23 0.0038520001148639213 -0.00043872813288165695 -0.007919712721223935
22 0.008105876675468686 -0.003829469111988787 -0.0034119314292057716
24 0.0015315715752286098 0.006666108972007266 0.00931827027612257
10 -0.0022240545650260876 -0.001339255829381422 0.005367321730781168
9 -0.006062723177575421 -0.0006684825012844426 -0.009427358740667212
16 0.0012866942971632188 0.001280517733458517 -0.004231862290422234
13 -0.00023025562138276847 0.002165063506641337 0.0030406813999489268
14 0.0068192446179700765 -0.015820370770976765 0.018921285948074993
17 -0.003172641299956462 0.0008176342859085471 -0.002620835606968795
18 0.005432866167445967 0.0017593286087598378 -0.008151089434581177

Bonds

1 1 4 5
2 1 4 6
3 1 1 2
4 1 1 3
5 1 19 20
6 1 19 21
7 1 7 8
8 1 7 9
9 1 22 23
10 1 22 24
11 1 10 11
12 1 10 12
13 1 16 17
14 1 16 18
15 1 13 14
16 1 13 15

Angles

1 1 5 4 6
2 1 2 1 3
3 1 20 19 21
4 1 8 7 9
5 1 23 22 24
6 1 11 10 12
7 1 17 16 18
8 1 14 13 15
