ITEM: TIMESTEP
200
ITEM: NUMBER OF ATOMS
24
ITEM: BOX BOUNDS pp pp pp
5.5623604088633982e-02 3.0978576395911382e+01
5.5623604088633982e-02 3.0978576395911382e+01
5.5623604088633982e-02 3.0978576395911382e+01
ITEM: ATOMS id mol type x y z ix iy iz
8 3 2 30.5046 3.96825 30.2875 -1 0 -1
10 4 1 3.57401 3.27643 0.617188 0 0 0
11 4 2 4.54621 3.49049 0.522723 0 0 0
12 4 2 3.32545 2.56044 30.8878 0 0 -1
20 7 2 -0.684896 2.43028 2.43469 0 0 0
22 8 1 3.65383 2.83322 3.18435 0 0 0
23 8 2 3.3377 2.88133 2.23689 0 0 0
24 8 2 4.30495 3.57239 3.3564 0 0 0
7 3 1 30.3518 3.37741 0.156713 -1 0 0
19 7 1 30.6121 3.12785 3.04575 -1 0 0
9 3 2 30.4775 3.90618 0.996083 -1 0 0
21 7 2 30.2879 2.9635 3.97729 -1 0 0
2 1 2 29.7152 0.345117 0.463902 -1 0 0
4 2 1 3.49321 30.932 0.307348 0 -1 0
5 2 2 3.38182 -0.0387408 1.29994 0 0 0
6 2 2 2.71123 30.4952 -0.13722 0 -1 0
14 5 2 -0.0667947 -0.346974 2.35679 0 0 0
16 6 1 3.63762 0.242457 3.17231 0 0 0
17 6 2 4.25231 31.002 3.94392 0 -1 0
18 6 2 3.27604 1.17324 3.22551 0 0 0
1 1 1 30.4415 30.6664 0.13152 -1 -1 0
13 5 1 30.587 0.239134 3.12097 -1 0 0
3 1 2 30.2079 -0.58744 30.1402 -1 0 -1
15 5 2 30.0833 30.6213 3.79451 -1 -1 0
ITEM: TIMESTEP
400
ITEM: NUMBER OF ATOMS
24
ITEM: BOX BOUNDS pp pp pp
1.2715276167489975e-01 3.0907047238325120e+01
1.2715276167489975e-01 3.0907047238325120e+01
1.2715276167489975e-01 3.0907047238325120e+01
ITEM: ATOMS id mol type x y z ix iy iz
8 3 2 0.324931 3.30116 0.948172 0 0 0
10 4 1 3.38564 3.09836 0.649294 0 0 0
11 4 2 4.33245 2.78487 0.721555 0 0 0
12 4 2 2.7751 2.3076 0.606092 0 0 0
20 7 2 0.152079 2.12418 3.00072 0 0 0
22 8 1 3.46017 3.41131 3.25438 0 0 0
23 8 2 3.76233 3.30341 2.30729 0 0 0
24 8 2 2.52427 3.07138 3.34642 0 0 0
7 3 1 30.4494 2.94613 0.281644 -1 0 0
19 7 1 0.449657 3.07807 2.9622 0 0 0
9 3 2 29.8931 3.69813 30.7079 -1 0 -1
21 7 2 30.8599 3.57452 3.74757 -1 0 0
2 1 2 0.0269638 1.11608 30.5724 0 0 -1
4 2 1 2.38823 0.559128 0.872547 0 0 0
5 2 2 2.89493 30.7829 1.53126 0 -1 0
6 2 2 1.66967 30.7853 0.451812 0 -1 0
14 5 2 30.7008 30.9603 2.14468 -1 -1 0
16 6 1 3.73229 30.6492 3.23914 0 -1 0
17 6 2 4.69914 30.4042 3.31069 0 -1 0
18 6 2 3.54888 0.671708 3.80692 0 0 0
1 1 1 30.6277 0.133785 30.6265 -1 0 -1
13 5 1 0.197188 0.318103 3.09582 0 0 0
3 1 2 29.6434 -0.0213041 30.7113 -1 0 -1
15 5 2 1.17976 0.154912 3.18449 0 0 0
ITEM: TIMESTEP
600
ITEM: NUMBER OF ATOMS
24
ITEM: BOX BOUNDS pp pp pp
1.0658473881857233e-01 3.0927615261181465e+01
1.0658473881857233e-01 3.0927615261181465e+01
1.0658473881857233e-01 3.0927615261181465e+01
ITEM: ATOMS id mol type x y z ix iy iz
8 3 2 1.16815 3.06018 0.217108 0 0 0
10 4 1 3.76012 3.52622 0.235413 0 0 0
11 4 2 4.75795 3.47529 0.276998 0 0 0
12 4 2 3.37266 2.62062 31.229 0 0 -1
20 7 2 0.111459 2.05748 3.42266 0 0 0
22 8 1 3.2264 3.12527 2.85596 0 0 0
23 8 2 3.18293 3.27547 1.86827 0 0 0
24 8 2 2.37934 3.44632 3.27953 0 0 0
7 3 1 0.340203 2.49958 0.231599 0 0 0
19 7 1 0.339028 2.97449 3.75024 0 0 0
9 3 2 30.3845 3.04394 30.7358 -1 0 -1
21 7 2 30.3608 3.37682 4.19671 -1 0 0
2 1 2 30.3536 0.897324 0.262329 -1 0 0
4 2 1 2.88392 0.821254 0.50039 0 0 0
5 2 2 2.79694 0.320334 1.3615 0 0 0
6 2 2 2.21459 0.47387 30.6647 0 0 -1
14 5 2 0.0765704 30.9834 2.06767 0 -1 0
16 6 1 2.80083 30.7807 3.15117 0 -1 0
17 6 2 3.68839 30.3657 3.35104 0 -1 0
18 6 2 2.92862 0.923662 2.91786 0 0 0
1 1 1 30.2375 30.7332 0.388322 -1 -1 0
13 5 1 0.25261 0.384306 3.0267 0 0 0
3 1 2 29.2656 30.523 0.494342 -1 -1 0
15 5 2 1.21802 0.22583 3.23371 0 0 0
ITEM: TIMESTEP
800
ITEM: NUMBER OF ATOMS
24
ITEM: BOX BOUNDS pp pp pp
7.5301908797444028e-02 3.0958898091202574e+01
7.5301908797444028e-02 3.0958898091202574e+01
7.5301908797444028e-02 3.0958898091202574e+01
ITEM: ATOMS id mol type x y z ix iy iz
8 3 2 1.76085 2.2063 0.501263 0 0 0
10 4 1 3.35431 3.55266 0.0923214 0 0 0
11 4 2 3.99822 4.07566 30.4175 0 0 -1
12 4 2 3.35446 2.59788 30.6787 0 0 -1
20 7 2 0.352571 2.31461 3.95641 0 0 0
22 8 1 2.86563 3.01528 3.22477 0 0 0
23 8 2 3.29674 3.44872 2.43342 0 0 0
24 8 2 1.90181 3.27865 3.26513 0 0 0
7 3 1 0.767963 2.17697 0.386096 0 0 0
19 7 1 30.9057 3.24211 3.78174 -1 0 0
9 3 2 0.326095 2.52489 1.21293 0 0 0
21 7 2 29.906 3.2489 3.8009 -1 0 0
2 1 2 30.5288 0.847775 0.382838 -1 0 0
4 2 1 3.43844 0.593429 0.130702 0 0 0
5 2 2 3.43995 30.9399 0.974192 0 -1 0
6 2 2 3.07281 30.9226 30.2668 0 -1 -1
14 5 2 30.5465 0.132031 2.30142 -1 0 0
16 6 1 3.07308 30.7171 2.69045 0 -1 0
17 6 2 3.17141 30.0589 3.43676 0 -1 0
18 6 2 3.11433 0.762636 3.05789 0 0 0
1 1 1 29.9201 30.9533 0.537829 -1 -1 0
13 5 1 0.177321 0.544162 3.0534 0 0 0
3 1 2 29.0595 0.217467 30.9341 -1 0 -1
15 5 2 1.15715 0.435071 2.88612 0 0 0
ITEM: TIMESTEP
1000
ITEM: NUMBER OF ATOMS
24
ITEM: BOX BOUNDS pp pp pp
1.5280047376839079e-02 3.1018919952623179e+01
1.5280047376839079e-02 3.1018919952623179e+01
1.5280047376839079e-02 3.1018919952623179e+01
ITEM: ATOMS id mol type x y z ix iy iz
8 3 2 1.17073 2.8839 0.0751526 0 0 0
10 4 1 2.99665 2.95182 30.8607 0 0 -1
11 4 2 3.35848 3.49162 30.1007 0 0 -1
12 4 2 3.43559 2.05338 30.8701 0 0 -1
20 7 2 30.6894 1.93214 3.3402 -1 0 0
22 8 1 2.96663 2.84795 3.37459 0 0 0
23 8 2 2.78878 3.76394 3.01504 0 0 0
24 8 2 2.09825 2.39149 3.56825 0 0 0
7 3 1 0.186356 2.99103 0.21471 0 0 0
19 7 1 30.8507 2.91609 3.26409 -1 0 0
9 3 2 31.0221 3.37933 1.1208 -1 0 0
21 7 2 30.2553 3.40188 3.90401 -1 0 0
2 1 2 30.2414 1.30412 0.469911 -1 0 0
4 2 1 3.99793 0.52379 30.97 0 0 -1
5 2 2 3.95653 0.295151 0.938978 0 0 0
6 2 2 3.6819 30.7471 30.4304 0 -1 -1
14 5 2 30.6006 0.122988 2.44005 -1 0 0
16 6 1 3.70814 30.9277 2.6416 0 -1 0
17 6 2 4.09305 30.3682 3.37559 0 -1 0
18 6 2 3.63558 0.872933 2.94886 0 0 0
1 1 1 30.0827 0.325661 0.601708 -1 0 0
13 5 1 30.5682 0.125527 3.43949 -1 0 0
3 1 2 29.1112 0.125568 0.474872 -1 0 0
15 5 2 30.7751 30.2127 3.782 -1 -1 0
ITEM: TIMESTEP
1200
ITEM: NUMBER OF ATOMS
24
ITEM: BOX BOUNDS pp pp pp
-4.7674828478864839e-02 3.1081874828478888e+01
-4.7674828478864839e-02 3.1081874828478888e+01
-4.7674828478864839e-02 3.1081874828478888e+01
ITEM: ATOMS id mol type x y z ix iy iz
8 3 2 0.862739 2.95136 -0.327824 0 0 0
22 8 1 3.05123 1.7484 3.96471 0 0 0
23 8 2 3.06766 2.55102 3.36846 0 0 0
24 8 2 2.12717 1.61928 4.32447 0 0 0
7 3 1 0.0929314 3.0313 0.305417 0 0 0
9 3 2 0.369584 3.57201 1.09983 0 0 0
4 2 1 4.09008 0.572742 0.0703371 0 0 0
5 2 2 4.48471 0.607363 0.988521 0 0 0
16 6 1 4.96168 0.395397 2.59466 0 0 0
18 6 2 4.17383 0.63352 3.16262 0 0 0
20 7 2 30.1388 2.09113 3.42516 -1 0 0
19 7 1 30.5196 3.01452 3.37742 -1 0 0
21 7 2 30.0948 3.58694 4.07876 -1 0 0
2 1 2 30.3592 1.52553 0.366642 -1 0 0
14 5 2 30.2085 0.606906 2.2712 -1 0 0
1 1 1 30.1391 0.555825 0.472549 -1 0 0
13 5 1 29.9162 0.33603 3.18835 -1 0 0
17 6 2 5.7986 31.6017 3.13655 0 -1 0
15 5 2 29.1147 30.8713 3.12082 -1 -1 0
10 4 1 2.40736 2.44627 30.1083 0 0 -1
11 4 2 3.07642 2.85713 29.489 0 0 -1
12 4 2 2.85317 1.74216 30.661 0 0 -1
3 1 2 30.4632 0.0511501 30.8019 -1 0 -1
6 2 2 4.1942 30.7803 30.8269 0 -1 -1
ITEM: TIMESTEP
1400
ITEM: NUMBER OF ATOMS
24
ITEM: BOX BOUNDS pp pp pp
-2.7323162654299793e-02 3.1061523162654360e+01
-2.7323162654299793e-02 3.1061523162654360e+01
-2.7323162654299793e-02 3.1061523162654360e+01
ITEM: ATOMS id mol type x y z ix iy iz
8 3 2 0.805673 2.19544 0.168691 0 0 0
22 8 1 3.39849 0.770441 4.16763 0 0 0
23 8 2 2.73957 1.47752 3.91092 0 0 0
24 8 2 2.912 -0.0165695 4.54706 0 0 0
7 3 1 31.0097 2.53216 0.490669 -1 0 0
9 3 2 0.0333231 2.96028 1.38737 0 0 0
4 2 1 4.35785 0.705669 0.188967 0 0 0
5 2 2 4.79012 1.01265 1.03687 0 0 0
16 6 1 5.60148 1.40257 2.50304 0 0 0
18 6 2 4.97424 0.997978 3.16855 0 0 0
20 7 2 30.3587 2.47129 2.87092 -1 0 0
19 7 1 31.0442 3.13516 3.1699 -1 0 0
21 7 2 30.9399 3.30344 4.15013 -1 0 0
2 1 2 30.0428 1.11633 0.185761 -1 0 0
14 5 2 29.2333 0.753941 1.94935 -1 0 0
1 1 1 29.4749 0.293954 0.219622 -1 0 0
13 5 1 29.1304 1.22826 2.82367 -1 0 0
17 6 2 6.16 2.09978 2.95246 0 0 0
15 5 2 28.1587 1.31403 3.04398 -1 0 0
10 4 1 2.25789 2.19637 30.5506 0 0 -1
11 4 2 2.51632 3.16215 30.5281 0 0 -1
12 4 2 3.07871 1.63391 30.6502 0 0 -1
3 1 2 29.928 30.644 30.8096 -1 -1 -1
6 2 2 5.0341 0.236563 30.7098 0 0 -1
ITEM: TIMESTEP
1600
ITEM: NUMBER OF ATOMS
24
ITEM: BOX BOUNDS pp pp pp
-1.1745134146355696e-02 3.1045945134146432e+01
-1.1745134146355696e-02 3.1045945134146432e+01
-1.1745134146355696e-02 3.1045945134146432e+01
ITEM: ATOMS id mol type x y z ix iy iz
8 3 2 1.2175 1.98583 30.8227 0 0 -1
22 8 1 3.07728 0.864158 3.43917 0 0 0
23 8 2 2.17798 1.00343 3.02471 0 0 0
24 8 2 3.2476 30.9422 3.54451 0 -1 0
7 3 1 31.4641 1.59035 0.195762 -1 0 0
9 3 2 0.529046 1.57682 1.18807 0 0 0
4 2 1 5.20583 1.04032 0.264438 0 0 0
5 2 2 5.52119 1.24445 1.19114 0 0 0
16 6 1 5.43527 1.99634 2.85298 0 0 0
18 6 2 4.54258 1.58313 3.03257 0 0 0
20 7 2 30.3909 1.64824 3.12804 -1 0 0
19 7 1 0.310727 1.80405 2.98603 0 0 0
21 7 2 0.594559 2.62055 3.48869 0 0 0
2 1 2 29.1528 1.45037 0.118098 -1 0 0
14 5 2 28.3805 1.96455 2.40196 -1 0 0
1 1 1 28.4444 0.938017 0.603485 -1 0 0
13 5 1 28.4447 1.88991 3.39705 -1 0 0
17 6 2 5.58176 2.75979 3.48194 0 0 0
15 5 2 27.6055 2.24088 3.81243 -1 0 0
10 4 1 2.85721 2.20607 30.4805 0 0 -1
11 4 2 3.10306 3.15633 30.2896 0 0 -1
12 4 2 3.63533 1.73821 30.8995 0 0 -1
3 1 2 28.5918 31.0156 0.470709 -1 -1 0
6 2 2 5.8636 31.4945 -0.1861 0 -1 0
ITEM: TIMESTEP
1800
ITEM: NUMBER OF ATOMS
24
ITEM: BOX BOUNDS pp pp pp
5.0458499954540770e-02 3.0983741500045547e+01
5.0458499954540770e-02 3.0983741500045547e+01
5.0458499954540770e-02 3.0983741500045547e+01
ITEM: ATOMS id mol type x y z ix iy iz
8 3 2 1.18557 0.796798 31.2326 0 0 -1
22 8 1 3.07664 0.574804 2.75696 0 0 0
23 8 2 2.2982 1.02947 3.18964 0 0 0
24 8 2 2.77243 0.114652 1.92292 0 0 0
7 3 1 0.377425 0.470816 0.789739 0 0 0
9 3 2 0.404645 0.800642 1.73334 0 0 0
4 2 1 5.77113 2.01868 0.36585 0 0 0
5 2 2 5.59874 2.19596 1.33475 0 0 0
16 6 1 5.21592 2.2047 3.03644 0 0 0
18 6 2 4.52526 1.48168 3.02433 0 0 0
20 7 2 30.2076 1.31698 3.39471 -1 0 0
19 7 1 0.20424 1.60106 3.16142 0 0 0
21 7 2 0.203761 2.56867 2.90915 0 0 0
2 1 2 29.9307 2.04842 0.582128 -1 0 0
14 5 2 28.5001 2.1649 2.48093 -1 0 0
1 1 1 29.1264 2.56358 0.878148 -1 0 0
13 5 1 28.1782 1.7685 3.34064 -1 0 0
17 6 2 5.32521 2.54562 3.97011 0 0 0
15 5 2 27.1818 1.83875 3.38753 -1 0 0
10 4 1 2.48818 1.54172 30.2984 0 0 -1
11 4 2 2.86103 1.68077 29.381 0 0 -1
12 4 2 3.23629 1.51193 30.9612 0 0 -1
3 1 2 28.5428 2.7531 31.0219 -1 0 -1
6 2 2 6.74258 1.82425 0.230291 0 0 0
ITEM: TIMESTEP
2000
ITEM: NUMBER OF ATOMS
24
ITEM: BOX BOUNDS pp pp pp
1.4595709083718234e-01 3.0888242909162905e+01
1.4595709083718234e-01 3.0888242909162905e+01
1.4595709083718234e-01 3.0888242909162905e+01
ITEM: ATOMS id mol type x y z ix iy iz
8 3 2 1.09438 0.751125 0.292389 0 0 0
22 8 1 2.93063 0.392811 2.91926 0 0 0
23 8 2 1.98418 0.567111 3.19111 0 0 0
24 8 2 2.99439 31.1254 1.92131 0 -1 0
7 3 1 0.328447 1.29754 0.631256 0 0 0
9 3 2 30.6979 0.873194 1.45647 -1 0 0
4 2 1 4.17582 2.9386 0.262926 0 0 0
5 2 2 4.57186 2.60548 1.11863 0 0 0
16 6 1 4.99885 2.02801 2.76019 0 0 0
18 6 2 4.30969 1.32008 2.91493 0 0 0
20 7 2 30.5447 1.84195 3.69861 -1 0 0
19 7 1 0.597909 1.66697 4.27884 0 0 0
21 7 2 0.60374 2.31474 5.04069 0 0 0
2 1 2 30.1997 2.7011 0.392743 -1 0 0
14 5 2 28.9276 2.22627 1.96258 -1 0 0
1 1 1 29.4096 3.28217 0.587978 -1 0 0
13 5 1 29.0349 1.59762 2.73287 -1 0 0
17 6 2 5.62082 2.06438 3.54243 0 0 0
15 5 2 28.1391 1.24263 3.00067 -1 0 0
10 4 1 3.28812 0.28959 30.9503 0 0 -1
11 4 2 3.95788 30.3947 -0.173376 0 -1 0
12 4 2 3.5609 1.22758 30.7363 0 0 -1
3 1 2 28.8464 3.36617 30.5082 -1 0 -1
6 2 2 4.32466 3.92468 30.9307 0 0 -1
ITEM: TIMESTEP
2200
ITEM: NUMBER OF ATOMS
24
ITEM: BOX BOUNDS pp pp pp
1.2110126290057543e-01 3.0913098737099489e+01
1.2110126290057543e-01 3.0913098737099489e+01
1.2110126290057543e-01 3.0913098737099489e+01
ITEM: ATOMS id mol type x y z ix iy iz
8 3 2 1.17622 1.10269 30.7966 0 0 -1
22 8 1 3.39234 0.615965 3.5954 0 0 0
23 8 2 2.47256 0.67291 3.98381 0 0 0
24 8 2 3.36281 30.8841 2.74406 0 -1 0
7 3 1 0.294974 1.57541 30.8021 0 0 -1
4 2 1 3.28931 2.4893 0.564801 0 0 0
5 2 2 4.14496 2.64497 1.05847 0 0 0
16 6 1 5.19041 2.56888 2.63696 0 0 0
18 6 2 4.63044 1.84667 3.04309 0 0 0
19 7 1 0.746338 0.657749 4.29133 0 0 0
21 7 2 0.178332 30.63 4.36537 0 -1 0
17 6 2 6.04839 2.65045 3.14421 0 0 0
10 4 1 2.56741 30.6628 0.612392 0 -1 0
12 4 2 3.05146 0.726722 0.430263 0 0 0
9 3 2 30.6763 1.50448 0.919139 -1 0 0
20 7 2 0.411606 1.22861 3.54155 0 0 0
2 1 2 29.9558 2.97393 30.5237 -1 0 -1
14 5 2 29.9766 2.83736 2.40816 -1 0 0
1 1 1 29.3701 3.71665 30.8484 -1 0 -1
13 5 1 29.8574 1.84564 2.45715 -1 0 0
15 5 2 28.9292 1.63622 2.76471 -1 0 0
6 2 2 2.89713 3.36794 0.292253 0 0 0
3 1 2 28.6373 3.87676 30.1871 -1 0 -1
11 4 2 2.59543 30.0841 30.5893 0 -1 -1
ITEM: TIMESTEP
2400
ITEM: NUMBER OF ATOMS
24
ITEM: BOX BOUNDS pp pp pp
1.2148163245923449e-01 3.0912718367540819e+01
1.2148163245923449e-01 3.0912718367540819e+01
1.2148163245923449e-01 3.0912718367540819e+01
ITEM: ATOMS id mol type x y z ix iy iz
8 3 2 0.668849 0.709238 0.408455 0 0 0
22 8 1 3.22953 0.746979 3.59926 0 0 0
23 8 2 2.30257 0.812576 3.96852 0 0 0
24 8 2 3.22499 0.160284 2.78951 0 0 0
7 3 1 30.4854 0.923244 0.471783 -1 0 0
4 2 1 4.68445 2.03815 0.255484 0 0 0
5 2 2 4.48822 2.35047 1.18493 0 0 0
16 6 1 4.56677 2.95403 2.83965 0 0 0
18 6 2 4.30299 2.03184 3.1223 0 0 0
19 7 1 0.574356 0.397242 3.79241 0 0 0
21 7 2 30.7678 30.5235 4.24016 -1 -1 0
17 6 2 4.91975 3.45638 3.62894 0 0 0
10 4 1 2.37739 0.476791 30.7998 0 0 -1
12 4 2 3.08537 1.1686 0.150274 0 0 0
9 3 2 30.2234 1.00299 1.43353 -1 0 0
20 7 2 30.8277 1.19119 3.50906 -1 0 0
2 1 2 29.896 2.51362 0.149053 -1 0 0
14 5 2 29.4566 2.6224 2.05341 -1 0 0
1 1 1 29.6573 3.4803 0.2409 -1 0 0
13 5 1 29.8339 2.30691 2.92405 -1 0 0
15 5 2 30.03 3.09502 3.50744 -1 0 0
6 2 2 5.64302 2.2215 30.8289 0 0 -1
3 1 2 29.5572 3.88666 30.124 -1 0 -1
11 4 2 2.79027 30.4425 30.4151 0 -1 -1
ITEM: TIMESTEP
2600
ITEM: NUMBER OF ATOMS
24
ITEM: BOX BOUNDS pp pp pp
1.2680650843498320e-01 3.0907393491565081e+01
1.2680650843498320e-01 3.0907393491565081e+01
1.2680650843498320e-01 3.0907393491565081e+01
ITEM: ATOMS id mol type x y z ix iy iz
8 3 2 1.72097 0.722168 30.6653 0 0 -1
22 8 1 2.53034 0.756327 3.69897 0 0 0
23 8 2 1.53355 0.676275 3.70366 0 0 0
24 8 2 2.89162 0.473786 4.58761 0 0 0
7 3 1 1.09531 0.452444 0.616764 0 0 0
4 2 1 5.01375 1.4846 0.242535 0 0 0
5 2 2 4.66681 2.00911 1.02006 0 0 0
16 6 1 3.8699 2.67427 2.36696 0 0 0
18 6 2 3.09004 2.12684 2.67052 0 0 0
19 7 1 30.6475 0.737397 3.65584 -1 0 0
21 7 2 30.678 0.396746 2.71613 -1 0 0
17 6 2 3.77298 3.60973 2.7069 0 0 0
10 4 1 2.78217 1.52555 29.6576 0 0 -1
12 4 2 3.65288 1.73862 30.1009 0 0 -1
9 3 2 1.59982 -0.0521097 1.31742 0 0 0
20 7 2 30.2405 1.65075 3.66624 -1 0 0
2 1 2 30.3815 1.76229 0.881169 -1 0 0
14 5 2 29.7752 3.15962 2.65171 -1 0 0
1 1 1 29.6544 2.39213 1.15446 -1 0 0
13 5 1 29.8143 3.26445 3.64545 -1 0 0
15 5 2 29.5765 4.20422 3.89109 -1 0 0
6 2 2 5.71681 0.847064 0.557631 0 0 0
3 1 2 29.3547 2.92023 31.1405 -1 0 -1
11 4 2 2.87914 1.62519 28.6673 0 0 -1
ITEM: TIMESTEP
2800
ITEM: NUMBER OF ATOMS
24
ITEM: BOX BOUNDS pp pp pp
2.4883907665861571e-02 3.1009316092334181e+01
2.4883907665861571e-02 3.1009316092334181e+01
2.4883907665861571e-02 3.1009316092334181e+01
ITEM: ATOMS id mol type x y z ix iy iz
8 3 2 1.75176 1.39309 30.2868 0 0 -1
22 8 1 1.96696 0.170624 3.68773 0 0 0
23 8 2 1.09731 0.664202 3.67514 0 0 0
24 8 2 2.13727 30.8033 4.60822 0 -1 0
7 3 1 1.30614 1.27648 0.190036 0 0 0
4 2 1 5.21885 1.45268 30.9295 0 0 -1
5 2 2 5.06978 1.68756 0.905676 0 0 0
16 6 1 3.69473 2.01426 2.31088 0 0 0
18 6 2 3.27599 1.32073 2.89717 0 0 0
19 7 1 30.37 1.28844 4.07327 -1 0 0
21 7 2 29.9647 1.05158 3.19026 -1 0 0
17 6 2 2.99098 2.43711 1.73991 0 0 0
10 4 1 3.21016 1.68984 28.92 0 0 -1
12 4 2 4.05771 1.60215 29.4435 0 0 -1
9 3 2 1.82018 0.615506 0.736795 0 0 0
20 7 2 30.0558 2.19614 4.3515 -1 0 0
2 1 2 30.837 1.17476 1.02621 -1 0 0
14 5 2 30.3208 4.44377 4.03843 -1 0 0
1 1 1 29.9776 0.910604 1.46419 -1 0 0
13 5 1 29.5301 3.8363 3.96134 -1 0 0
15 5 2 29.0896 3.97347 3.07409 -1 0 0
6 2 2 6.0108 0.846785 30.8536 0 0 -1
3 1 2 29.5376 0.190475 0.927649 -1 0 0
11 4 2 3.41384 1.62712 27.943 0 0 -1
ITEM: TIMESTEP
3000
ITEM: NUMBER OF ATOMS
24
ITEM: BOX BOUNDS pp pp pp
4.1250596926944993e-02 3.0992949403073055e+01
4.1250596926944993e-02 3.0992949403073055e+01
4.1250596926944993e-02 3.0992949403073055e+01
ITEM: ATOMS id mol type x y z ix iy iz
8 3 2 1.56352 1.40233 30.1562 0 0 -1
22 8 1 1.72273 0.135564 3.79774 0 0 0
23 8 2 1.08007 0.885655 3.95385 0 0 0
24 8 2 1.34183 30.4574 3.12079 0 -1 0
7 3 1 0.727559 1.78876 30.5459 0 0 -1
4 2 1 5.15588 2.0531 30.8523 0 0 -1
5 2 2 4.92828 1.53036 0.722141 0 0 0
16 6 1 4.32856 0.968032 2.69204 0 0 0
18 6 2 3.40134 0.717941 2.97086 0 0 0
19 7 1 30.7685 2.03359 3.63539 -1 0 0
21 7 2 30.5002 1.43405 2.88135 -1 0 0
17 6 2 4.81974 1.35163 3.47409 0 0 0
10 4 1 3.06664 1.37944 29.2149 0 0 -1
12 4 2 3.97642 1.5579 29.5897 0 0 -1
9 3 2 0.49977 2.63832 30.0701 0 0 -1
20 7 2 30.0524 2.71387 3.79139 -1 0 0
2 1 2 0.0655498 0.703565 0.820998 0 0 0
14 5 2 28.9761 5.13124 4.05168 -1 0 0
1 1 1 30.5807 0.202479 1.56823 -1 0 0
13 5 1 29.0416 4.14578 4.20846 -1 0 0
15 5 2 28.4981 3.89904 5.01074 -1 0 0
6 2 2 6.09938 2.37849 -0.0367125 0 0 0
3 1 2 30.0209 30.4158 1.19211 -1 -1 0
11 4 2 3.14399 0.762809 28.4315 0 0 -1
ITEM: TIMESTEP
3200
ITEM: NUMBER OF ATOMS
24
ITEM: BOX BOUNDS pp pp pp
1.1434984031652640e-01 3.0919850159683484e+01
1.1434984031652640e-01 3.0919850159683484e+01
1.1434984031652640e-01 3.0919850159683484e+01
ITEM: ATOMS id mol type x y z ix iy iz
22 8 1 2.43364 1.28964 2.87536 0 0 0
23 8 2 1.82574 2.03031 3.16148 0 0 0
5 2 2 5.04363 1.30241 1.04418 0 0 0
16 6 1 4.9721 0.132418 3.18242 0 0 0
18 6 2 4.07872 0.57797 3.12443 0 0 0
17 6 2 5.10593 30.5784 4.1059 0 -1 0
19 7 1 0.122295 2.84955 3.49258 0 0 0
21 7 2 0.130448 2.65029 2.51267 0 0 0
20 7 2 30.0379 3.22709 3.74855 -1 0 0
2 1 2 0.232743 0.563324 0.468349 0 0 0
14 5 2 27.953 3.61973 4.43413 -1 0 0
1 1 1 0.471185 30.5333 0.963324 0 -1 0
13 5 1 28.8018 4.14536 4.49161 -1 0 0
15 5 2 28.95 4.43682 5.43664 -1 0 0
24 8 2 1.90833 0.602239 2.37381 0 0 0
3 1 2 0.378885 29.7465 0.353033 0 -1 0
8 3 2 1.05681 1.90345 29.9848 0 0 -1
7 3 1 0.0938016 1.95614 30.2491 0 0 -1
4 2 1 4.36323 2.01494 0.872855 0 0 0
10 4 1 2.68462 1.1671 29.6176 0 0 -1
12 4 2 3.2064 1.78812 30.2025 0 0 -1
9 3 2 30.3737 2.37886 29.5108 -1 0 -1
6 2 2 3.76829 2.10662 1.67138 0 0 0
11 4 2 3.28254 0.434639 29.292 0 0 -1
ITEM: TIMESTEP
3400
ITEM: NUMBER OF ATOMS
24
ITEM: BOX BOUNDS pp pp pp
1.7338808936949235e-01 3.0860811910630524e+01
1.7338808936949235e-01 3.0860811910630524e+01
1.7338808936949235e-01 3.0860811910630524e+01
ITEM: ATOMS id mol type x y z ix iy iz
22 8 1 2.07615 1.38225 3.38971 0 0 0
23 8 2 1.57581 2.20671 3.12548 0 0 0
5 2 2 4.32352 0.767637 1.45416 0 0 0
16 6 1 4.74199 30.836 3.151 0 -1 0
18 6 2 3.91521 0.333111 3.6823 0 0 0
17 6 2 5.2117 30.0394 3.53129 0 -1 0
19 7 1 0.224248 3.29566 2.55909 0 0 0
21 7 2 30.5071 2.91774 1.72638 -1 0 0
20 7 2 30.1867 3.64237 3.15417 -1 0 0
2 1 2 0.307462 0.26027 0.97574 0 0 0
14 5 2 29.3751 3.43221 5.49228 -1 0 0
1 1 1 0.920111 30.3883 1.53394 0 -1 0
13 5 1 29.1877 3.84276 4.59995 -1 0 0
15 5 2 28.228 3.69632 4.36059 -1 0 0
24 8 2 1.66647 0.586488 2.94384 0 0 0
3 1 2 1.31507 29.6628 0.970409 0 -1 0
8 3 2 0.71349 2.31164 30.1569 0 0 -1
7 3 1 30.6994 1.65037 30.4225 -1 0 -1
4 2 1 4.29375 1.64898 0.982744 0 0 0
10 4 1 2.79629 2.12878 29.3195 0 0 -1
12 4 2 3.46003 1.93602 30.0421 0 0 -1
9 3 2 30.2712 1.27125 29.6023 -1 0 -1
6 2 2 4.23206 2.38537 1.6564 0 0 0
11 4 2 3.08231 1.67631 28.4748 0 0 -1
ITEM: TIMESTEP
3600
ITEM: NUMBER OF ATOMS
24
ITEM: BOX BOUNDS pp pp pp
2.4524242077852954e-01 3.0788957579221467e+01
2.4524242077852954e-01 3.0788957579221467e+01
2.4524242077852954e-01 3.0788957579221467e+01
ITEM: ATOMS id mol type x y z ix iy iz
22 8 1 1.6668 1.47458 4.26186 0 0 0
23 8 2 1.44242 2.2932 3.7332 0 0 0
5 2 2 4.11508 1.04429 0.83366 0 0 0
16 6 1 4.24162 0.289772 3.27695 0 0 0
18 6 2 3.47657 0.69547 3.77701 0 0 0
17 6 2 4.62905 30.0829 3.81215 0 -1 0
19 7 1 1.41489 3.39673 2.28413 0 0 0
21 7 2 1.49672 2.5466 1.764 0 0 0
20 7 2 0.46473 3.52298 2.56909 0 0 0
2 1 2 0.8174 30.8325 1.30485 0 -1 0
14 5 2 28.7755 3.35224 3.58017 -1 0 0
1 1 1 1.04928 30.36 2.15509 0 -1 0
13 5 1 29.7301 3.1874 3.82801 -1 0 0
15 5 2 29.7703 2.53132 4.5816 -1 0 0
24 8 2 1.43096 0.660298 3.73151 0 0 0
3 1 2 1.64918 29.5858 1.95323 0 -1 0
8 3 2 1.30918 1.77699 30.0798 0 0 -1
7 3 1 0.470077 1.37279 30.4438 0 0 -1
4 2 1 3.62727 1.91454 0.765514 0 0 0
10 4 1 2.34562 2.87642 29.1726 0 0 -1
12 4 2 2.94511 2.7844 29.9676 0 0 -1
9 3 2 30.2226 1.77952 29.9872 -1 0 -1
6 2 2 3.6228 2.36494 1.65831 0 0 0
11 4 2 2.72456 2.35599 28.4074 0 0 -1
ITEM: TIMESTEP
3800
ITEM: NUMBER OF ATOMS
24
ITEM: BOX BOUNDS pp pp pp
2.1019789738753580e-01 3.0824002102612432e+01
2.1019789738753580e-01 3.0824002102612432e+01
2.1019789738753580e-01 3.0824002102612432e+01
ITEM: ATOMS id mol type x y z ix iy iz
22 8 1 1.99622 1.06817 4.45797 0 0 0
23 8 2 1.52215 0.920048 5.32588 0 0 0
5 2 2 4.12588 1.62509 1.94626 0 0 0
16 6 1 4.08172 0.265913 3.06166 0 0 0
18 6 2 3.39047 0.512405 3.74091 0 0 0
17 6 2 4.27807 29.9013 3.12584 0 -1 0
19 7 1 2.13746 4.20433 2.42426 0 0 0
21 7 2 2.13817 5.18899 2.59865 0 0 0
20 7 2 1.68658 3.73203 3.18163 0 0 0
2 1 2 0.358807 0.626723 1.18833 0 0 0
14 5 2 30.5125 1.85563 2.67512 -1 0 0
1 1 1 0.802431 0.438735 2.06458 0 0 0
13 5 1 29.7394 2.41903 2.96647 -1 0 0
15 5 2 29.6102 3.16884 2.31758 -1 0 0
24 8 2 1.32413 1.19018 3.72765 0 0 0
3 1 2 1.66791 30.5778 1.90493 0 -1 0
8 3 2 0.517116 1.64292 29.933 0 0 -1
7 3 1 30.4243 1.0677 30.345 -1 0 -1
4 2 1 3.71575 2.20983 1.24638 0 0 0
10 4 1 2.06198 2.27022 29.4588 0 0 -1
12 4 2 2.46839 2.10809 30.3579 0 0 -1
9 3 2 29.5426 1.26409 29.9159 -1 0 -1
6 2 2 2.9439 2.7093 1.63977 0 0 0
11 4 2 2.78784 2.37798 28.7794 0 0 -1
ITEM: TIMESTEP
4000
ITEM: NUMBER OF ATOMS
24
ITEM: BOX BOUNDS pp pp pp
1.7955050962996211e-01 3.0854649490369990e+01
1.7955050962996211e-01 3.0854649490369990e+01
1.7955050962996211e-01 3.0854649490369990e+01
ITEM: ATOMS id mol type x y z ix iy iz
22 8 1 1.59389 0.709574 4.16662 0 0 0
23 8 2 0.941618 1.452 4.31939 0 0 0
5 2 2 3.96791 1.96924 1.56103 0 0 0
16 6 1 4.25409 0.718946 3.31571 0 0 0
18 6 2 3.33 0.776398 3.69356 0 0 0
17 6 2 4.31955 30.5974 2.71479 0 -1 0
19 7 1 2.74972 4.39198 3.22361 0 0 0
21 7 2 2.59634 3.43218 3.45868 0 0 0
20 7 2 2.25145 4.97586 3.86456 0 0 0
2 1 2 0.485337 0.438272 0.93366 0 0 0
14 5 2 29.9687 2.4875 1.53746 -1 0 0
1 1 1 1.21816 0.283963 1.59635 0 0 0
13 5 1 29.9404 2.72541 2.50833 -1 0 0
15 5 2 29.6695 1.92316 3.04032 -1 0 0
24 8 2 1.33009 0.197008 3.3495 0 0 0
3 1 2 1.94476 0.955747 1.45226 0 0 0
8 3 2 30.9022 1.1602 30.1079 -1 0 -1
7 3 1 30.0488 1.04649 30.6166 -1 0 -1
4 2 1 3.10131 2.30153 1.18875 0 0 0
10 4 1 1.96989 1.59326 29.4209 0 0 -1
12 4 2 2.45154 2.0848 30.1465 0 0 -1
9 3 2 29.358 0.636426 30.0211 -1 0 -1
6 2 2 2.91151 3.21444 1.55011 0 0 0
11 4 2 2.61641 1.3479 28.6986 0 0 -1
ITEM: TIMESTEP
4200
ITEM: NUMBER OF ATOMS
24
ITEM: BOX BOUNDS pp pp pp
1.7173787268060359e-01 3.0862462127319382e+01
1.7173787268060359e-01 3.0862462127319382e+01
1.7173787268060359e-01 3.0862462127319382e+01
ITEM: ATOMS id mol type x y z ix iy iz
22 8 1 1.63995 0.949253 4.01636 0 0 0
23 8 2 0.677085 1.21824 3.9945 0 0 0
5 2 2 3.93612 1.54339 1.33877 0 0 0
16 6 1 4.36394 1.31409 3.66161 0 0 0
18 6 2 3.46113 1.42673 4.07656 0 0 0
19 7 1 2.2206 3.83448 3.12234 0 0 0
21 7 2 2.43094 4.73543 2.74286 0 0 0
20 7 2 2.34135 3.85438 4.1148 0 0 0
2 1 2 0.931114 29.1891 1.26736 0 -1 0
1 1 1 1.02715 30.0411 1.78197 0 -1 0
24 8 2 1.85045 31.0888 3.20902 0 -1 0
3 1 2 1.23094 30.7901 1.15155 0 -1 0
4 2 1 3.24827 2.13776 0.922195 0 0 0
6 2 2 3.03469 2.88901 1.54666 0 0 0
14 5 2 30.2116 2.23824 1.68722 -1 0 0
13 5 1 30.37 2.62715 2.59474 -1 0 0
15 5 2 0.661857 2.74082 2.74176 0 0 0
17 6 2 4.88035 0.624393 4.16915 0 0 0
8 3 2 30.9249 1.85151 29.9702 -1 0 -1
10 4 1 1.73626 1.77984 29.359 0 0 -1
12 4 2 2.21498 1.8096 30.2364 0 0 -1
11 4 2 2.38474 1.55073 28.6331 0 0 -1
7 3 1 30.1082 1.70397 30.528 -1 0 -1
9 3 2 29.3026 1.66853 29.9366 -1 0 -1
ITEM: TIMESTEP
4400
ITEM: NUMBER OF ATOMS
24
ITEM: BOX BOUNDS pp pp pp
1.6047766123191387e-01 3.0873722338768086e+01
1.6047766123191387e-01 3.0873722338768086e+01
1.6047766123191387e-01 3.0873722338768086e+01
ITEM: ATOMS id mol type x y z ix iy iz
22 8 1 1.88215 0.467004 3.53395 0 0 0
23 8 2 1.1935 0.943566 4.08041 0 0 0
5 2 2 4.34691 2.25862 1.30586 0 0 0
16 6 1 4.30884 1.62401 3.79774 0 0 0
18 6 2 3.41252 1.19335 3.69235 0 0 0
19 7 1 2.39479 4.35133 2.62545 0 0 0
21 7 2 2.58601 3.78843 1.82138 0 0 0
20 7 2 2.5513 3.81341 3.45377 0 0 0
2 1 2 30.7033 0.124873 0.816668 -1 0 0
1 1 1 0.432146 30.1982 1.44515 0 -1 0
24 8 2 1.45294 30.8001 2.71464 0 -1 0
3 1 2 0.0473952 29.2843 1.31565 0 -1 0
4 2 1 3.36173 2.09028 1.27365 0 0 0
6 2 2 3.16571 1.18526 1.6511 0 0 0
14 5 2 30.3456 2.11382 2.11826 -1 0 0
13 5 1 30.2623 2.47903 3.04543 -1 0 0
15 5 2 30.7931 3.32322 3.12008 -1 0 0
17 6 2 4.69243 1.38152 4.68882 0 0 0
8 3 2 0.191585 1.33987 30.0253 0 0 -1
10 4 1 1.95529 1.86485 29.5566 0 0 -1
12 4 2 2.33291 1.80443 30.4806 0 0 -1
11 4 2 2.70208 1.93452 28.8953 0 0 -1
7 3 1 30.1327 1.31062 30.6601 -1 0 -1
9 3 2 29.7529 2.22963 30.7656 -1 0 -1
ITEM: TIMESTEP
4600
ITEM: NUMBER OF ATOMS
24
ITEM: BOX BOUNDS pp pp pp
1.4198324072973634e-01 3.0892216759270273e+01
1.4198324072973634e-01 3.0892216759270273e+01
1.4198324072973634e-01 3.0892216759270273e+01
ITEM: ATOMS id mol type x y z ix iy iz
22 8 1 1.80705 0.457742 3.08028 0 0 0
23 8 2 1.23139 1.27302 3.01788 0 0 0
5 2 2 4.50706 1.34867 1.02852 0 0 0
16 6 1 3.84309 2.16167 4.19531 0 0 0
18 6 2 3.15897 1.50504 3.87786 0 0 0
19 7 1 2.62515 4.29717 2.66562 0 0 0
21 7 2 3.53056 4.18549 3.07513 0 0 0
20 7 2 2.6351 3.93899 1.73204 0 0 0
2 1 2 30.8324 30.2926 0.607066 -1 -1 0
1 1 1 0.310664 29.7776 1.4332 0 -1 0
24 8 2 1.28257 30.4068 2.79222 0 -1 0
3 1 2 30.9124 28.8023 1.26975 -1 -1 0
4 2 1 3.51947 1.44547 0.905043 0 0 0
6 2 2 3.04382 1.01264 1.67079 0 0 0
14 5 2 29.6934 2.91957 3.34178 -1 0 0
13 5 1 30.6557 2.64766 3.33777 -1 0 0
15 5 2 0.479778 3.45212 3.48935 0 0 0
17 6 2 4.30212 1.79894 5.00628 0 0 0
8 3 2 0.225125 1.67529 30.1147 0 0 -1
10 4 1 1.68851 2.36913 29.7882 0 0 -1
12 4 2 2.21861 1.68415 30.288 0 0 -1
11 4 2 2.30876 2.95613 29.2679 0 0 -1
7 3 1 30.2435 1.08196 30.4497 -1 0 -1
9 3 2 29.4318 1.63218 30.6459 -1 0 -1
ITEM: TIMESTEP
4800
ITEM: NUMBER OF ATOMS
24
ITEM: BOX BOUNDS pp pp pp
1.4163448147960622e-01 3.0892565518520414e+01
1.4163448147960622e-01 3.0892565518520414e+01
1.4163448147960622e-01 3.0892565518520414e+01
ITEM: ATOMS id mol type x y z ix iy iz
22 8 1 1.5883 0.643789 2.94068 0 0 0
23 8 2 0.974144 1.35422 2.59696 0 0 0
5 2 2 3.38937 2.42287 1.45962 0 0 0
16 6 1 3.53105 2.15566 4.09676 0 0 0
18 6 2 2.76632 1.6199 3.73874 0 0 0
19 7 1 3.12588 4.21182 2.6516 0 0 0
21 7 2 3.2451 3.4102 3.23745 0 0 0
20 7 2 4.00992 4.47855 2.26772 0 0 0
2 1 2 -0.0456735 30.0227 0.645909 0 -1 0
1 1 1 0.33784 29.3826 1.31159 0 -1 0
24 8 2 1.29616 30.5042 2.59185 0 -1 0
3 1 2 30.951 28.4456 0.99058 -1 -1 0
4 2 1 3.23767 1.58179 0.940399 0 0 0
6 2 2 3.18071 0.807024 1.57011 0 0 0
14 5 2 29.9707 3.30869 3.54246 -1 0 0
13 5 1 0.157553 2.97828 3.64915 0 0 0
15 5 2 0.770038 3.52287 3.07616 0 0 0
17 6 2 3.59195 2.02923 5.08689 0 0 0
8 3 2 0.437936 1.10186 30.0141 0 0 -1
10 4 1 1.57212 2.61092 29.8079 0 0 -1
12 4 2 2.09237 2.24886 30.5813 0 0 -1
11 4 2 2.06176 3.38732 29.411 0 0 -1
7 3 1 30.4399 0.626759 30.476 -1 0 -1
9 3 2 29.5669 0.930427 30.0944 -1 0 -1
ITEM: TIMESTEP
5000
ITEM: NUMBER OF ATOMS
24
ITEM: BOX BOUNDS pp pp pp
7.0938950428095282e-02 3.0963261049571919e+01
7.0938950428095282e-02 3.0963261049571919e+01
7.0938950428095282e-02 3.0963261049571919e+01
ITEM: ATOMS id mol type x y z ix iy iz
22 8 1 1.10865 0.273459 3.3719 0 0 0
23 8 2 0.235716 0.368018 3.8505 0 0 0
5 2 2 2.69694 3.88871 1.04603 0 0 0
16 6 1 3.13217 1.74695 4.49147 0 0 0
18 6 2 2.88784 0.863113 4.09255 0 0 0
19 7 1 3.80286 4.25258 3.11773 0 0 0
21 7 2 3.5501 3.53043 3.76163 0 0 0
20 7 2 4.78634 4.4234 3.17771 0 0 0
2 1 2 0.221853 29.8723 0.453589 0 -1 0
1 1 1 0.432824 29.3469 1.27792 0 -1 0
24 8 2 1.00741 30.515 2.61939 0 -1 0
3 1 2 0.387864 28.3696 1.07095 0 -1 0
4 2 1 2.89971 2.99447 0.647021 0 0 0
6 2 2 3.33937 2.41517 1.3334 0 0 0
14 5 2 1.71766 2.56796 3.43949 0 0 0
13 5 1 0.897036 3.08903 3.20485 0 0 0
15 5 2 1.15979 3.92759 2.72759 0 0 0
17 6 2 2.7506 1.81343 5.41342 0 0 0
8 3 2 30.8454 0.725903 29.6486 -1 0 -1
10 4 1 1.07659 2.08798 29.4554 0 0 -1
12 4 2 1.66851 2.36379 30.2127 0 0 -1
11 4 2 1.19766 2.72044 28.6903 0 0 -1
7 3 1 30.2087 0.0431496 30.0069 -1 0 -1
9 3 2 29.3199 0.470635 30.1724 -1 0 -1
ITEM: TIMESTEP
5200
ITEM: NUMBER OF ATOMS
24
ITEM: BOX BOUNDS pp pp pp
9.7439053207786230e-02 3.0936760946792202e+01
9.7439053207786230e-02 3.0936760946792202e+01
9.7439053207786230e-02 3.0936760946792202e+01
ITEM: ATOMS id mol type x y z ix iy iz
22 8 1 0.976724 0.60878 3.3004 0 0 0
23 8 2 1.10496 1.43758 2.75587 0 0 0
5 2 2 2.57939 4.69027 0.217249 0 0 0
16 6 1 3.1434 1.22451 5.06856 0 0 0
18 6 2 2.31142 1.07287 4.53499 0 0 0
19 7 1 3.9883 3.06651 3.17506 0 0 0
21 7 2 3.86113 2.16456 3.58761 0 0 0
20 7 2 4.92041 3.14272 2.82117 0 0 0
4 2 1 1.96112 3.92997 0.416166 0 0 0
6 2 2 1.57262 4.04667 1.33012 0 0 0
14 5 2 0.647087 4.13136 3.79864 0 0 0
13 5 1 1.19061 4.15586 2.95967 0 0 0
15 5 2 2.11072 3.81293 3.14852 0 0 0
17 6 2 3.01192 0.877063 5.99693 0 0 0
1 1 1 0.85082 29.4157 1.33652 0 -1 0
24 8 2 0.635108 30.7136 2.71411 0 -1 0
3 1 2 0.844557 28.4223 1.22227 0 -1 0
2 1 2 0.401326 29.8441 0.552783 0 -1 0
8 3 2 0.209336 0.230184 29.6768 0 0 -1
10 4 1 1.19125 2.00496 29.398 0 0 -1
12 4 2 1.38683 2.68988 30.0997 0 0 -1
11 4 2 1.93416 1.99189 28.7288 0 0 -1
9 3 2 29.4778 30.7631 30.0004 -1 -1 -1
7 3 1 30.4072 30.3969 30.0456 -1 -1 -1
ITEM: TIMESTEP
5400
ITEM: NUMBER OF ATOMS
24
ITEM: BOX BOUNDS pp pp pp
1.3397515157326190e-01 3.0900224848426742e+01