LAMMPS (29 Sep 2021 - Update 3)
##Initialization Section

    # -- Default styles (for solo "SPCE" water) --

    units        real
    atom_style   full
    pair_style   lj/charmm/coul/long 9.0 10.0
    bond_style   harmonic
    angle_style  harmonic
    kspace_style pppm 0.0001
    #pair_modify  mix arithmetic  # LEAVE THIS UNSPECIFIED!


## Atom Definition

read_data    "system_after_npt.data"
Reading data file ...
  orthogonal box = (1.9070747 1.9070747 1.9070747) to (29.127125 29.127125 29.127125)
  1 by 1 by 1 MPI processor grid
  reading atoms ...
  6 atoms
  reading velocities ...
  6 velocities
  scanning bonds ...
  2 = max bonds/atom
  scanning angles ...
  1 = max angles/atom
  reading bonds ...
  4 bonds
  reading angles ...
  2 angles
Finding 1-2 1-3 1-4 neighbors ...
  special bond factors lj:    0        0        0       
  special bond factors coul:  0        0        0       
     2 = max # of 1-2 neighbors
     1 = max # of 1-3 neighbors
     1 = max # of 1-4 neighbors
     2 = max # of special neighbors
  special bonds CPU = 0.000 seconds
  read_data CPU = 0.004 seconds

## Settings Section

    bond_coeff   1         600.0   1.0
    angle_coeff  1       75.0    109.47
    pair_coeff   1 1  0.1553  3.166
    pair_coeff   2 2  0.0     0.0
    group spce type  1  2
6 atoms in group spce
    # Note: Since we are using RATTLE constraints, the bond and angle strength
    # parameters ("600.0", "75.0") do not matter. But the equilibrium bond
    # length ("1.0") and equilibrium angle ("109.47") does matter. LAMMPS
    # obtains these numbers from the bond_coeff and angle_coeff commands above.

# ------------------------------- Run Section -------------------------------
# -- simulation protocol --



timestep     1.0
dump         1 all custom 500 traj_nvt.lammpstrj id mol type x y z ix iy iz
fix          fxnvt all nvt temp 300.0 300.0 500.0 tchain 1

#Constraints
    group spce type  1  2
6 atoms in group spce
    fix fRattleSPCE spce rattle 0.0001 10 100 b 1 a 1
       0 = # of size 2 clusters
       0 = # of size 3 clusters
       0 = # of size 4 clusters
       2 = # of frozen angles
  find clusters CPU = 0.000 seconds
    # Remember to put this command in your LAMMPS input script:
    #  include system.in.constraints
    # ...after minimization and after all integration fixes

thermo       500

run          10000
PPPM initialization ...
  using 12-bit tables for long-range coulomb (../kspace.cpp:340)
  G vector (1/distance) = 0.21257584
  grid = 8 8 8
  stencil order = 5
  estimated absolute RMS force accuracy = 0.020060853
  estimated relative force accuracy = 6.0412662e-05
  using double precision FFTW3
  3d grid and FFT values/proc = 2197 512
Neighbor list info ...
  update every 1 steps, delay 10 steps, check yes
  max neighbors/atom: 2000, page size: 100000
  master list distance cutoff = 12
  ghost atom cutoff = 12
  binsize = 6, bins = 5 5 5
  1 neighbor lists, perpetual/occasional/extra = 1 0 0
  (1) pair lj/charmm/coul/long, perpetual
      attributes: half, newton on
      pair build: half/bin/newton
      stencil: half/bin/3d
      bin: standard
SHAKE stats (type/ave/delta/count) on step 0
     1   1.00001   3.09711e-08        6
     1   109.470   1.44964e-06        2
Per MPI rank memory allocation (min/avg/max) = 9.577 | 9.577 | 9.577 Mbytes
Step Temp E_pair E_mol TotEng Press 
       0    264.16719   -6.5137773            0   -4.1514807   -8.0720818 
SHAKE stats (type/ave/delta/count) on step 100
     1   1.00000   5.39315e-08        6
     1   109.470   3.27557e-06        2
SHAKE stats (type/ave/delta/count) on step 200
     1   1.00000   2.74131e-08        6
     1   109.470   1.92118e-06        2
SHAKE stats (type/ave/delta/count) on step 300
     1   1.00000   4.50094e-08        6
     1   109.470   2.44626e-06        2
SHAKE stats (type/ave/delta/count) on step 400
     1   1.00000   4.17726e-08        6
     1   109.470   2.13382e-06        2
SHAKE stats (type/ave/delta/count) on step 500
     1   1.00000   2.94415e-08        6
     1   109.470   2.07059e-06        2
     500    301.00501   -6.8233467            0   -4.1316304    -2.771543 
SHAKE stats (type/ave/delta/count) on step 600
     1   1.00000   4.43972e-08        6
     1   109.470   3.07587e-06        2
SHAKE stats (type/ave/delta/count) on step 700
     1   1.00000   2.72642e-08        6
     1   109.470   1.46006e-06        2
SHAKE stats (type/ave/delta/count) on step 800
     1   1.00000   4.78637e-08        6
     1   109.470   2.66288e-06        2
SHAKE stats (type/ave/delta/count) on step 900
     1   1.00000   2.55001e-08        6
     1   109.470   1.85356e-06        2
SHAKE stats (type/ave/delta/count) on step 1000
     1   1.00000   3.93247e-08        6
     1   109.470   2.19164e-06        2
    1000    324.70331   -7.0588172            0   -4.1551805   0.14929282 
SHAKE stats (type/ave/delta/count) on step 1100
     1   1.00000   3.61375e-08        6
     1   109.470   1.76644e-06        2
SHAKE stats (type/ave/delta/count) on step 1200
     1   1.00000   2.75377e-08        6
     1   109.470   1.96526e-06        2
SHAKE stats (type/ave/delta/count) on step 1300
     1   1.00000   3.92096e-08        6
     1   109.470   2.38074e-06        2
SHAKE stats (type/ave/delta/count) on step 1400
     1   1.00000   2.69620e-08        6
     1   109.470   1.43826e-06        2
SHAKE stats (type/ave/delta/count) on step 1500
     1   1.00000   4.84288e-08        6
     1   109.470   3.00086e-06        2
    1500     314.2737   -6.9435866            0   -4.1332159    4.7678093 
SHAKE stats (type/ave/delta/count) on step 1600
     1   1.00000   4.18270e-08        6
     1   109.470   2.37084e-06        2
SHAKE stats (type/ave/delta/count) on step 1700
     1   1.00000   3.95664e-08        6
     1   109.470   2.18443e-06        2
SHAKE stats (type/ave/delta/count) on step 1800
     1   1.00000   4.94448e-08        6
     1   109.470   2.40599e-06        2
SHAKE stats (type/ave/delta/count) on step 1900
     1   1.00000   2.65623e-08        6
     1   109.470   1.80648e-06        2
SHAKE stats (type/ave/delta/count) on step 2000
     1   1.00000   5.23009e-08        6
     1   109.470   2.92877e-06        2
    2000      327.892   -7.0409268            0   -4.1087755     10.04153 
SHAKE stats (type/ave/delta/count) on step 2100
     1   1.00000   2.30657e-08        6
     1   109.470   1.30250e-06        2
SHAKE stats (type/ave/delta/count) on step 2200
     1   1.00000   3.51348e-08        6
     1   109.470   2.17436e-06        2
SHAKE stats (type/ave/delta/count) on step 2300
     1   1.00000   3.14264e-08        6
     1   109.470   1.99898e-06        2
SHAKE stats (type/ave/delta/count) on step 2400
     1   1.00000   2.56258e-08        6
     1   109.470   1.41955e-06        2
SHAKE stats (type/ave/delta/count) on step 2500
     1   1.00000   5.08517e-08        6
     1   109.470   3.10156e-06        2
    2500    310.23143   -6.8980014            0   -4.1237785    7.7003567 
SHAKE stats (type/ave/delta/count) on step 2600
     1   1.00000   2.89316e-08        6
     1   109.470   1.93750e-06        2
SHAKE stats (type/ave/delta/count) on step 2700
     1   1.00000   5.16359e-08        6
     1   109.470   2.92221e-06        2
SHAKE stats (type/ave/delta/count) on step 2800
     1   1.00000   4.06310e-08        6
     1   109.470   2.36065e-06        2
SHAKE stats (type/ave/delta/count) on step 2900
     1   1.00000   3.09238e-08        6
     1   109.470   2.02864e-06        2
SHAKE stats (type/ave/delta/count) on step 3000
     1   1.00000   4.58913e-08        6
     1   109.470   2.57967e-06        2
    3000    306.92721   -6.8862035            0   -4.1415283    3.2494986 
SHAKE stats (type/ave/delta/count) on step 3100
     1   1.00000   2.87696e-08        6
     1   109.470   1.54492e-06        2
SHAKE stats (type/ave/delta/count) on step 3200
     1   1.00000   3.09195e-08        6
     1   109.470   2.19375e-06        2
SHAKE stats (type/ave/delta/count) on step 3300
     1   1.00000   4.04160e-08        6
     1   109.470   2.42978e-06        2
SHAKE stats (type/ave/delta/count) on step 3400
     1   1.00000   2.59186e-08        6
     1   109.470   1.34064e-06        2
SHAKE stats (type/ave/delta/count) on step 3500
     1   1.00000   3.93781e-08        6
     1   109.470   2.40779e-06        2
    3500    292.93896   -6.8066351            0    -4.187049    4.5033483 
SHAKE stats (type/ave/delta/count) on step 3600
     1   1.00000   3.03512e-08        6
     1   109.470   2.02341e-06        2
SHAKE stats (type/ave/delta/count) on step 3700
     1   1.00000   2.76718e-08        6
     1   109.470   1.56144e-06        2
SHAKE stats (type/ave/delta/count) on step 3800
     1   1.00000   4.47034e-08        6
     1   109.470   2.43167e-06        2
SHAKE stats (type/ave/delta/count) on step 3900
     1   1.00000   2.47351e-08        6
     1   109.470   1.66765e-06        2
SHAKE stats (type/ave/delta/count) on step 4000
     1   1.00000   4.11362e-08        6
     1   109.470   2.13753e-06        2
    4000    288.97175   -6.7713854            0   -4.1872757    5.8664237 
SHAKE stats (type/ave/delta/count) on step 4100
     1   1.00000   3.34740e-08        6
     1   109.470   1.69799e-06        2
SHAKE stats (type/ave/delta/count) on step 4200
     1   1.00000   3.14507e-08        6
     1   109.470   1.77599e-06        2
SHAKE stats (type/ave/delta/count) on step 4300
     1   1.00000   6.21382e-08        6
     1   109.470   2.53069e-06        2
SHAKE stats (type/ave/delta/count) on step 4400
     1   1.00000   2.27552e-08        6
     1   109.470   1.28455e-06        2
SHAKE stats (type/ave/delta/count) on step 4500
     1   1.00000   5.08503e-08        6
     1   109.470   2.81275e-06        2
    4500    331.90201   -7.0767171            0   -4.1087066    1.9050023 
SHAKE stats (type/ave/delta/count) on step 4600
     1   1.00000   3.73910e-08        6
     1   109.470   2.02231e-06        2
SHAKE stats (type/ave/delta/count) on step 4700
     1   1.00000   2.58387e-08        6
     1   109.470   1.21609e-06        2
SHAKE stats (type/ave/delta/count) on step 4800
     1   1.00000   5.69374e-08        6
     1   109.470   3.72988e-06        2
SHAKE stats (type/ave/delta/count) on step 4900
     1   1.00000   2.39215e-08        6
     1   109.470   1.43011e-06        2
SHAKE stats (type/ave/delta/count) on step 5000
     1   1.00000   3.74068e-08        6
     1   109.470   2.08397e-06        2
    5000    322.98915   -6.9771821            0   -4.0888742  -0.98326985 
SHAKE stats (type/ave/delta/count) on step 5100
     1   1.00000   4.20036e-08        6
     1   109.470   2.74795e-06        2
SHAKE stats (type/ave/delta/count) on step 5200
     1   1.00000   2.37388e-08        6
     1   109.470   1.21715e-06        2
SHAKE stats (type/ave/delta/count) on step 5300
     1   1.00000   4.65028e-08        6
     1   109.470   2.20318e-06        2
SHAKE stats (type/ave/delta/count) on step 5400
     1   1.00000   3.05998e-08        6
     1   109.470   1.90923e-06        2
SHAKE stats (type/ave/delta/count) on step 5500
     1   1.00000   2.82879e-08        6
     1   109.470   1.61844e-06        2
    5500    277.50067   -6.6424318            0   -4.1609015   -4.9358732 
SHAKE stats (type/ave/delta/count) on step 5600
     1   1.00000   5.00289e-08        6
     1   109.470   2.90873e-06        2
SHAKE stats (type/ave/delta/count) on step 5700
     1   1.00000   3.73826e-08        6
     1   109.470   2.35542e-06        2
SHAKE stats (type/ave/delta/count) on step 5800
     1   1.00000   3.13649e-08        6
     1   109.470   2.19139e-06        2
SHAKE stats (type/ave/delta/count) on step 5900
     1   1.00000   5.00816e-08        6
     1   109.470   2.45011e-06        2
SHAKE stats (type/ave/delta/count) on step 6000
     1   1.00000   3.24779e-08        6
     1   109.470   1.70916e-06        2
    6000    285.39532   -6.8330825            0   -4.2809548   -3.0493116 
SHAKE stats (type/ave/delta/count) on step 6100
     1   1.00000   3.26881e-08        6
     1   109.470   2.11530e-06        2
SHAKE stats (type/ave/delta/count) on step 6200
     1   1.00000   5.03702e-08        6
     1   109.470   3.12122e-06        2
SHAKE stats (type/ave/delta/count) on step 6300
     1   1.00000   3.57692e-08        6
     1   109.470   2.38096e-06        2
SHAKE stats (type/ave/delta/count) on step 6400
     1   1.00000   3.81996e-08        6
     1   109.470   2.59685e-06        2
SHAKE stats (type/ave/delta/count) on step 6500
     1   1.00000   4.16661e-08        6
     1   109.470   2.95665e-06        2
    6500    311.33342   -7.0446576            0   -4.2605802    3.7764894 
SHAKE stats (type/ave/delta/count) on step 6600
     1   1.00000   3.19372e-08        6
     1   109.470   1.95840e-06        2
SHAKE stats (type/ave/delta/count) on step 6700
     1   1.00000   4.42020e-08        6
     1   109.470   2.92075e-06        2
SHAKE stats (type/ave/delta/count) on step 6800
     1   1.00000   3.68154e-08        6
     1   109.470   2.35712e-06        2
SHAKE stats (type/ave/delta/count) on step 6900
     1   1.00000   2.94737e-08        6
     1   109.470   1.21782e-06        2
SHAKE stats (type/ave/delta/count) on step 7000
     1   1.00000   3.39509e-08        6
     1   109.470   1.52229e-06        2
    7000    307.61643    -6.879754            0   -4.1289155    2.8603669 
SHAKE stats (type/ave/delta/count) on step 7100
     1   1.00000   2.98627e-08        6
     1   109.470   2.02103e-06        2
SHAKE stats (type/ave/delta/count) on step 7200
     1   1.00000   3.59006e-08        6
     1   109.470   1.80961e-06        2
SHAKE stats (type/ave/delta/count) on step 7300
     1   1.00000   3.86909e-08        6
     1   109.470   1.54933e-06        2
SHAKE stats (type/ave/delta/count) on step 7400
     1   1.00000   4.14685e-08        6
     1   109.470   2.37027e-06        2
SHAKE stats (type/ave/delta/count) on step 7500
     1   1.00000   4.83417e-08        6
     1   109.470   2.60015e-06        2
    7500    334.72707   -7.0402068            0   -4.0469334    2.5934691 
SHAKE stats (type/ave/delta/count) on step 7600
     1   1.00000   3.08394e-08        6
     1   109.470   1.76480e-06        2
SHAKE stats (type/ave/delta/count) on step 7700
     1   1.00000   4.09421e-08        6
     1   109.470   2.39097e-06        2
SHAKE stats (type/ave/delta/count) on step 7800
     1   1.00000   4.55953e-08        6
     1   109.470   2.12935e-06        2
SHAKE stats (type/ave/delta/count) on step 7900
     1   1.00000   3.31977e-08        6
     1   109.470   1.77158e-06        2
SHAKE stats (type/ave/delta/count) on step 8000
     1   1.00000   4.90152e-08        6
     1   109.470   3.03553e-06        2
    8000    318.20504   -7.0125573            0    -4.167031    5.3660065 
SHAKE stats (type/ave/delta/count) on step 8100
     1   1.00000   3.41250e-08        6
     1   109.470   1.38055e-06        2
SHAKE stats (type/ave/delta/count) on step 8200
     1   1.00000   3.58063e-08        6
     1   109.470   2.08844e-06        2
SHAKE stats (type/ave/delta/count) on step 8300
     1   1.00000   3.97243e-08        6
     1   109.470   2.76657e-06        2
SHAKE stats (type/ave/delta/count) on step 8400
     1   1.00000   2.23610e-08        6
     1   109.470   1.27296e-06        2
SHAKE stats (type/ave/delta/count) on step 8500
     1   1.00000   5.69971e-08        6
     1   109.470   2.74178e-06        2
    8500    292.42387   -6.9216334            0   -4.3066534     7.874095 
SHAKE stats (type/ave/delta/count) on step 8600
     1   1.00000   2.69449e-08        6
     1   109.470   1.76953e-06        2
SHAKE stats (type/ave/delta/count) on step 8700
     1   1.00000   2.97303e-08        6
     1   109.470   1.77214e-06        2
SHAKE stats (type/ave/delta/count) on step 8800
     1   1.00000   6.18826e-08        6
     1   109.470   3.13948e-06        2
SHAKE stats (type/ave/delta/count) on step 8900
     1   1.00000   2.50993e-08        6
     1   109.470   1.63244e-06        2
SHAKE stats (type/ave/delta/count) on step 9000
     1   1.00000   4.07176e-08        6
     1   109.470   2.82404e-06        2
    9000    309.75339   -7.0288145            0   -4.2588664    2.0139419 
SHAKE stats (type/ave/delta/count) on step 9100
     1   1.00000   3.75862e-08        6
     1   109.470   2.01028e-06        2
SHAKE stats (type/ave/delta/count) on step 9200
     1   1.00000   2.34627e-08        6
     1   109.470   1.87060e-06        2
SHAKE stats (type/ave/delta/count) on step 9300
     1   1.00000   5.72038e-08        6
     1   109.470   4.03474e-06        2
SHAKE stats (type/ave/delta/count) on step 9400
     1   1.00000   2.80765e-08        6
     1   109.470   1.12365e-06        2
SHAKE stats (type/ave/delta/count) on step 9500
     1   1.00000   3.20538e-08        6
     1   109.470   2.10051e-06        2
    9500    306.81729   -6.8304633            0   -4.0867711  -0.26616063 
SHAKE stats (type/ave/delta/count) on step 9600
     1   1.00000   4.48933e-08        6
     1   109.470   3.03332e-06        2
SHAKE stats (type/ave/delta/count) on step 9700
     1   1.00000   2.37285e-08        6
     1   109.470   1.11853e-06        2
SHAKE stats (type/ave/delta/count) on step 9800
     1   1.00000   4.88016e-08        6
     1   109.470   3.21333e-06        2
SHAKE stats (type/ave/delta/count) on step 9900
     1   1.00000   3.01031e-08        6
     1   109.470   1.70824e-06        2
SHAKE stats (type/ave/delta/count) on step 10000
     1   1.00000   3.58117e-08        6
     1   109.470   1.42119e-06        2
   10000    304.96998   -6.8263385            0   -4.0991658   -5.7743705 
Loop time of 0.207856 on 1 procs for 10000 steps with 6 atoms

Performance: 4156.724 ns/day, 0.006 hours/ns, 48110.230 timesteps/s
99.7% CPU use with 1 MPI tasks x no OpenMP threads

MPI task timing breakdown:
Section |  min time  |  avg time  |  max time  |%varavg| %total
---------------------------------------------------------------
Pair    | 0.002393   | 0.002393   | 0.002393   |   0.0 |  1.15
Bond    | 0.000235   | 0.000235   | 0.000235   |   0.0 |  0.11
Kspace  | 0.19582    | 0.19582    | 0.19582    |   0.0 | 94.21
Neigh   | 0.000175   | 0.000175   | 0.000175   |   0.0 |  0.08
Comm    | 0.001784   | 0.001784   | 0.001784   |   0.0 |  0.86
Output  | 0.000297   | 0.000297   | 0.000297   |   0.0 |  0.14
Modify  | 0.006058   | 0.006058   | 0.006058   |   0.0 |  2.91
Other   |            | 0.00109    |            |       |  0.52

Nlocal:        6.00000 ave           6 max           6 min
Histogram: 1 0 0 0 0 0 0 0 0 0
Nghost:        42.0000 ave          42 max          42 min
Histogram: 1 0 0 0 0 0 0 0 0 0
Neighs:        15.0000 ave          15 max          15 min
Histogram: 1 0 0 0 0 0 0 0 0 0

Total # of neighbors = 15
Ave neighs/atom = 2.5000000
Ave special neighs/atom = 2.0000000
Neighbor list builds = 138
Dangerous builds = 0

# Now that the system's temperature has become more equilibrated,
# we can increase the timestep:

timestep     2.0
run          50000
PPPM initialization ...
  using 12-bit tables for long-range coulomb (../kspace.cpp:340)
  G vector (1/distance) = 0.21257584
  grid = 8 8 8
  stencil order = 5
  estimated absolute RMS force accuracy = 0.020060853
  estimated relative force accuracy = 6.0412662e-05
  using double precision FFTW3
  3d grid and FFT values/proc = 2197 512
SHAKE stats (type/ave/delta/count) on step 10000
     1   1.00000   3.58117e-08        6
     1   109.470   1.42119e-06        2
Per MPI rank memory allocation (min/avg/max) = 9.577 | 9.577 | 9.577 Mbytes
Step Temp E_pair E_mol TotEng Press 
   10000    304.96998   -6.8263385            0   -4.0991658   -5.7749094 
SHAKE stats (type/ave/delta/count) on step 10100
     1   1.00000   8.40607e-08        6
     1   109.470   4.88495e-06        2
SHAKE stats (type/ave/delta/count) on step 10200
     1   1.00000   1.19169e-07        6
     1   109.470   1.57098e-06        2
SHAKE stats (type/ave/delta/count) on step 10300
     1   1.00000   1.43187e-07        6
     1   109.470   8.42789e-07        2
SHAKE stats (type/ave/delta/count) on step 10400
     1   1.00000   4.23260e-08        6
     1   109.470   4.16005e-06        2
SHAKE stats (type/ave/delta/count) on step 10500
     1   1.00000   3.35494e-08        6
     1   109.470   3.15560e-06        2
   10500    260.57277   -6.7520104            0   -4.4218566   -3.7120339 
SHAKE stats (type/ave/delta/count) on step 10600
     1   1.00000   2.97081e-08        6
     1   109.470   4.78733e-07        2
SHAKE stats (type/ave/delta/count) on step 10700
     1   1.00000   1.00125e-07        6
     1   109.470   1.39595e-05        2
SHAKE stats (type/ave/delta/count) on step 10800
     1   1.00000   3.26373e-08        6
     1   109.470   2.59539e-06        2
SHAKE stats (type/ave/delta/count) on step 10900
     1   1.00000   1.40161e-07        6
     1   109.470   5.19287e-06        2
SHAKE stats (type/ave/delta/count) on step 11000
     1   1.00000   5.35721e-08        6
     1   109.470   5.65678e-07        2
   11000    321.50432   -7.0153385            0   -4.1403086   -1.3550386 
SHAKE stats (type/ave/delta/count) on step 11100
     1   1.00000   5.46156e-08        6
     1   109.470   4.97839e-06        2
SHAKE stats (type/ave/delta/count) on step 11200
     1   1.00000   2.63422e-08        6
     1   109.470   2.79019e-06        2
SHAKE stats (type/ave/delta/count) on step 11300
     1   1.00000   7.63886e-08        6
     1   109.470   2.17481e-06        2
SHAKE stats (type/ave/delta/count) on step 11400
     1   1.00000   4.79051e-08        6
     1   109.470   3.38413e-06        2
SHAKE stats (type/ave/delta/count) on step 11500
     1   1.00000   4.95854e-08        6
     1   109.470   3.17762e-06        2
   11500    286.77702   -6.8193423            0   -4.2548589   -6.5038254 
SHAKE stats (type/ave/delta/count) on step 11600
     1   1.00000   2.70825e-08        6
     1   109.470   2.83982e-06        2
SHAKE stats (type/ave/delta/count) on step 11700
     1   1.00000   3.42006e-08        6
     1   109.470   2.12752e-06        2
SHAKE stats (type/ave/delta/count) on step 11800
     1   1.00000   6.51243e-08        6
     1   109.470   3.03511e-07        2
SHAKE stats (type/ave/delta/count) on step 11900
     1   1.00000   7.79012e-08        6
     1   109.470   4.35544e-06        2
SHAKE stats (type/ave/delta/count) on step 12000
     1   1.00000   3.27452e-08        6
     1   109.470   3.08732e-06        2
   12000    281.45791   -6.7446342            0   -4.2277165   -7.2491506 
SHAKE stats (type/ave/delta/count) on step 12100
     1   1.00000   9.62021e-08        6
     1   109.470   2.30661e-06        2
SHAKE stats (type/ave/delta/count) on step 12200
     1   1.00000   3.18197e-08        6
     1   109.470   7.24321e-08        2
SHAKE stats (type/ave/delta/count) on step 12300
     1   1.00000   5.03575e-08        6
     1   109.470   4.14852e-06        2
SHAKE stats (type/ave/delta/count) on step 12400
     1   1.00000   4.69565e-08        6
     1   109.470   1.90808e-06        2
SHAKE stats (type/ave/delta/count) on step 12500
     1   1.00000   4.96395e-08        6
     1   109.470   3.28141e-06        2
   12500    303.68645   -6.9539732            0   -4.2382783    3.3282796 
SHAKE stats (type/ave/delta/count) on step 12600
     1   1.00000   9.46820e-08        6
     1   109.470   9.03563e-07        2
SHAKE stats (type/ave/delta/count) on step 12700
     1   1.00000   4.90239e-08        6
     1   109.470   2.35034e-06        2
SHAKE stats (type/ave/delta/count) on step 12800
     1   1.00000   3.88871e-08        6
     1   109.470   1.53061e-06        2
SHAKE stats (type/ave/delta/count) on step 12900
     1   1.00000   4.96512e-08        6
     1   109.470   1.23448e-06        2
SHAKE stats (type/ave/delta/count) on step 13000
     1   1.00000   3.69908e-08        6
     1   109.470   1.93706e-06        2
   13000    305.20789   -7.0780699            0   -4.3487696   -2.1289644 
SHAKE stats (type/ave/delta/count) on step 13100
     1   1.00000   7.25527e-08        6
     1   109.470   3.92761e-06        2
SHAKE stats (type/ave/delta/count) on step 13200
     1   1.00000   5.94115e-08        6
     1   109.470   1.33974e-06        2
SHAKE stats (type/ave/delta/count) on step 13300
     1   1.00000   5.21782e-08        6
     1   109.470   4.02483e-07        2
SHAKE stats (type/ave/delta/count) on step 13400
     1   1.00000   6.69469e-08        6
     1   109.470   5.04324e-06        2
SHAKE stats (type/ave/delta/count) on step 13500
     1   1.00000   3.99328e-08        6
     1   109.470   3.77078e-06        2
   13500    339.82926   -7.1403265            0    -4.101427  -0.92657018 
SHAKE stats (type/ave/delta/count) on step 13600
     1   1.00000   6.97813e-08        6
     1   109.470   1.55450e-06        2
SHAKE stats (type/ave/delta/count) on step 13700
     1   1.00000   4.98289e-08        6
     1   109.470   3.87126e-06        2
SHAKE stats (type/ave/delta/count) on step 13800
     1   1.00000   6.22689e-08        6
     1   109.470   6.83038e-06        2
SHAKE stats (type/ave/delta/count) on step 13900
     1   1.00000   8.48254e-08        6
     1   109.470   2.24544e-06        2
SHAKE stats (type/ave/delta/count) on step 14000
     1   1.00000   6.24439e-08        6
     1   109.470   1.05952e-06        2
   14000    287.66721   -7.0675223            0   -4.4950784    2.4883494 
SHAKE stats (type/ave/delta/count) on step 14100
     1   1.00000   4.44385e-08        6
     1   109.470   7.28510e-07        2
SHAKE stats (type/ave/delta/count) on step 14200
     1   1.00000   7.18220e-08        6
     1   109.470   1.18589e-06        2
SHAKE stats (type/ave/delta/count) on step 14300
     1   1.00000   5.66734e-08        6
     1   109.470   2.99560e-06        2
SHAKE stats (type/ave/delta/count) on step 14400
     1   1.00000   9.84231e-08        6
     1   109.470   5.40206e-06        2
SHAKE stats (type/ave/delta/count) on step 14500
     1   1.00000   7.37625e-08        6
     1   109.470   1.38589e-06        2
   14500    317.27585   -6.9866509            0   -4.1494337   0.46869901 
SHAKE stats (type/ave/delta/count) on step 14600
     1   1.00000   3.79401e-08        6
     1   109.470   2.12045e-06        2
SHAKE stats (type/ave/delta/count) on step 14700
     1   1.00000   7.68893e-08        6
     1   109.470   9.68634e-07        2
SHAKE stats (type/ave/delta/count) on step 14800
     1   1.00000   7.41094e-08        6
     1   109.470   8.32229e-07        2
SHAKE stats (type/ave/delta/count) on step 14900
     1   1.00000   6.61118e-08        6
     1   109.470   5.93519e-07        2
SHAKE stats (type/ave/delta/count) on step 15000
     1   1.00000   2.97835e-08        6
     1   109.470   3.86484e-06        2
   15000    274.56287   -6.7838253            0    -4.328566   -5.5080323 
SHAKE stats (type/ave/delta/count) on step 15100
     1   1.00000   3.10353e-08        6
     1   109.470   3.25052e-06        2
SHAKE stats (type/ave/delta/count) on step 15200
     1   1.00000   6.82631e-08        6
     1   109.470   2.05142e-06        2
SHAKE stats (type/ave/delta/count) on step 15300
     1   1.00000   5.89280e-08        6
     1   109.470   1.70860e-06        2
SHAKE stats (type/ave/delta/count) on step 15400
     1   1.00000   2.92803e-08        6
     1   109.470   4.75266e-06        2
SHAKE stats (type/ave/delta/count) on step 15500
     1   1.00000   2.50182e-08        6
     1   109.470   1.54185e-06        2
   15500    276.76426   -6.6131945            0   -4.1382494   -9.5345875 
SHAKE stats (type/ave/delta/count) on step 15600
     1   1.00000   4.16129e-08        6
     1   109.470   1.15707e-07        2
SHAKE stats (type/ave/delta/count) on step 15700
     1   1.00000   8.28092e-08        6
     1   109.470   1.20073e-06        2
SHAKE stats (type/ave/delta/count) on step 15800
     1   1.00000   4.01377e-08        6
     1   109.470   2.79305e-06        2
SHAKE stats (type/ave/delta/count) on step 15900
     1   1.00000   8.47983e-08        6
     1   109.470   7.24012e-07        2
SHAKE stats (type/ave/delta/count) on step 16000
     1   1.00000   9.16918e-08        6
     1   109.470   6.77213e-06        2
   16000     281.1769   -6.6640606            0   -4.1496558   -6.7747981 
SHAKE stats (type/ave/delta/count) on step 16100
     1   1.00000   4.32586e-08        6
     1   109.470   4.22935e-07        2
SHAKE stats (type/ave/delta/count) on step 16200
     1   1.00000   7.61964e-08        6
     1   109.470   1.40617e-06        2
SHAKE stats (type/ave/delta/count) on step 16300
     1   1.00000   4.80414e-08        6
     1   109.470   3.32508e-06        2
SHAKE stats (type/ave/delta/count) on step 16400
     1   1.00000   7.71053e-08        6
     1   109.470   4.60884e-06        2
SHAKE stats (type/ave/delta/count) on step 16500
     1   1.00000   7.19569e-08        6
     1   109.470   4.72033e-06        2
   16500    257.00548    -6.686768            0   -4.3885144    2.2780095 
SHAKE stats (type/ave/delta/count) on step 16600
     1   1.00000   5.64073e-08        6
     1   109.470   3.78821e-07        2
SHAKE stats (type/ave/delta/count) on step 16700
     1   1.00000   6.75337e-08        6
     1   109.470   2.81451e-06        2
SHAKE stats (type/ave/delta/count) on step 16800
     1   1.00000   1.21892e-07        6
     1   109.470   1.17759e-05        2
SHAKE stats (type/ave/delta/count) on step 16900
     1   1.00000   5.89778e-08        6
     1   109.470   2.09346e-06        2
SHAKE stats (type/ave/delta/count) on step 17000
     1   1.00000   6.89075e-08        6
     1   109.470   2.33222e-06        2
   17000    351.37273   -7.0033705            0   -3.8612444    6.7501861 
SHAKE stats (type/ave/delta/count) on step 17100
     1   1.00000   1.03776e-07        6
     1   109.470   5.03261e-06        2
SHAKE stats (type/ave/delta/count) on step 17200
     1   1.00000   8.76869e-08        6
     1   109.470   3.30809e-06        2
SHAKE stats (type/ave/delta/count) on step 17300
     1   1.00000   5.84526e-08        6
     1   109.470   2.20920e-06        2
SHAKE stats (type/ave/delta/count) on step 17400
     1   1.00000   5.52970e-08        6
     1   109.470   1.35734e-06        2
SHAKE stats (type/ave/delta/count) on step 17500
     1   1.00000   5.81016e-08        6
     1   109.470   5.01724e-06        2
   17500    288.22623   -6.9975485            0   -4.4201055    3.4274017 
SHAKE stats (type/ave/delta/count) on step 17600
     1   1.00000   1.14353e-07        6
     1   109.470   6.70636e-06        2
SHAKE stats (type/ave/delta/count) on step 17700
     1   1.00000   1.91004e-07        6
     1   109.470   1.11651e-05        2
SHAKE stats (type/ave/delta/count) on step 17800
     1   1.00000   2.78511e-07        6
     1   109.470   4.33200e-06        2
SHAKE stats (type/ave/delta/count) on step 17900
     1   1.00000   2.62985e-07        6
     1   109.470   2.19120e-05        2
SHAKE stats (type/ave/delta/count) on step 18000
     1   1.00000   1.15167e-07        6
     1   109.470   9.72500e-06        2
   18000    327.24229   -6.7819803            0    -3.855639   -5.6780271 
SHAKE stats (type/ave/delta/count) on step 18100
     1   1.00000   3.76975e-08        6
     1   109.470   3.46402e-06        2
SHAKE stats (type/ave/delta/count) on step 18200
     1   1.00000   9.33059e-08        6
     1   109.470   2.81605e-07        2
SHAKE stats (type/ave/delta/count) on step 18300
     1   1.00000   7.35696e-08        6
     1   109.470   2.21289e-06        2
SHAKE stats (type/ave/delta/count) on step 18400
     1   1.00000   1.08517e-07        6
     1   109.470   5.37751e-06        2
SHAKE stats (type/ave/delta/count) on step 18500
     1   1.00000   2.11140e-08        6
     1   109.470   3.24700e-07        2
   18500    262.64384   -6.6829179            0   -4.3342437   -8.1227599 
SHAKE stats (type/ave/delta/count) on step 18600
     1   1.00000   3.16239e-08        6
     1   109.470   1.61814e-06        2
SHAKE stats (type/ave/delta/count) on step 18700
     1   1.00000   5.54383e-08        6
     1   109.470   2.15616e-06        2
SHAKE stats (type/ave/delta/count) on step 18800
     1   1.00000   7.88955e-08        6
     1   109.470   1.00749e-05        2
SHAKE stats (type/ave/delta/count) on step 18900
     1   1.00000   9.39093e-08        6
     1   109.470   9.38736e-06        2
SHAKE stats (type/ave/delta/count) on step 19000
     1   1.00000   4.66674e-08        6
     1   109.470   4.92248e-06        2
   19000    278.94126   -6.6196575            0   -4.1252447  -0.33225438 
SHAKE stats (type/ave/delta/count) on step 19100
     1   1.00000   8.26531e-08        6
     1   109.470   4.11503e-06        2
SHAKE stats (type/ave/delta/count) on step 19200
     1   1.00000   4.18911e-08        6
     1   109.470   4.48941e-06        2
SHAKE stats (type/ave/delta/count) on step 19300
     1   1.00000   4.65978e-08        6
     1   109.470   2.30933e-06        2
SHAKE stats (type/ave/delta/count) on step 19400
     1   1.00000   7.63130e-08        6
     1   109.470   1.18423e-06        2
SHAKE stats (type/ave/delta/count) on step 19500
     1   1.00000   6.56129e-08        6
     1   109.470   3.92745e-06        2
   19500    305.13623   -6.8169764            0   -4.0883169    7.0459131 
SHAKE stats (type/ave/delta/count) on step 19600
     1   1.00000   5.44897e-08        6
     1   109.470   1.26716e-06        2
SHAKE stats (type/ave/delta/count) on step 19700
     1   1.00000   3.15567e-08        6
     1   109.470   2.59662e-06        2
SHAKE stats (type/ave/delta/count) on step 19800
     1   1.00000   4.61555e-08        6
     1   109.470   1.47053e-06        2
SHAKE stats (type/ave/delta/count) on step 19900
     1   1.00000   5.74341e-08        6
     1   109.470   1.24249e-07        2
SHAKE stats (type/ave/delta/count) on step 20000
     1   1.00000   6.01410e-08        6
     1   109.470   5.07548e-06        2
   20000    276.99071   -6.7633374            0   -4.2863674   -6.0069381 
SHAKE stats (type/ave/delta/count) on step 20100
     1   1.00000   6.38979e-08        6
     1   109.470   6.65149e-06        2
SHAKE stats (type/ave/delta/count) on step 20200
     1   1.00000   6.86039e-08        6
     1   109.470   2.31340e-06        2
SHAKE stats (type/ave/delta/count) on step 20300
     1   1.00000   7.19086e-08        6
     1   109.470   2.25417e-06        2
SHAKE stats (type/ave/delta/count) on step 20400
     1   1.00000   4.83409e-08        6
     1   109.470   2.01714e-06        2
SHAKE stats (type/ave/delta/count) on step 20500
     1   1.00000   3.09259e-08        6
     1   109.470   4.46848e-07        2
   20500    332.67074   -6.8982899            0    -3.923405    2.2207353 
SHAKE stats (type/ave/delta/count) on step 20600
     1   1.00000   5.04243e-08        6
     1   109.470   4.80142e-07        2
SHAKE stats (type/ave/delta/count) on step 20700
     1   1.00000   2.81537e-08        6
     1   109.470   9.78310e-08        2
SHAKE stats (type/ave/delta/count) on step 20800
     1   1.00000   6.52229e-08        6
     1   109.470   3.10185e-06        2
SHAKE stats (type/ave/delta/count) on step 20900
     1   1.00000   4.58026e-08        6
     1   109.470   1.47550e-06        2
SHAKE stats (type/ave/delta/count) on step 21000
     1   1.00000   4.49564e-08        6
     1   109.470   1.97643e-06        2
   21000    267.24853   -6.7592555            0   -4.3694042    3.5418066 
SHAKE stats (type/ave/delta/count) on step 21100
     1   1.00000   1.91929e-08        6
     1   109.470   1.99131e-06        2
SHAKE stats (type/ave/delta/count) on step 21200
     1   1.00000   1.02913e-07        6
     1   109.470   2.49434e-06        2
SHAKE stats (type/ave/delta/count) on step 21300
     1   1.00000   1.30664e-07        6
     1   109.470   1.38738e-07        2
SHAKE stats (type/ave/delta/count) on step 21400
     1   1.00000   1.19458e-07        6
     1   109.470   3.58665e-06        2
SHAKE stats (type/ave/delta/count) on step 21500
     1   1.00000   3.86016e-08        6
     1   109.470   2.58726e-06        2
   21500    333.49631   -6.8900491            0   -3.9077817   -1.3327441 
SHAKE stats (type/ave/delta/count) on step 21600
     1   1.00000   4.76816e-08        6
     1   109.470   3.97791e-06        2
SHAKE stats (type/ave/delta/count) on step 21700
     1   1.00000   3.81857e-08        6
     1   109.470   1.92566e-06        2
SHAKE stats (type/ave/delta/count) on step 21800
     1   1.00000   6.61368e-08        6
     1   109.470   4.33789e-06        2
SHAKE stats (type/ave/delta/count) on step 21900
     1   1.00000   7.38990e-08        6
     1   109.470   8.94452e-06        2
SHAKE stats (type/ave/delta/count) on step 22000
     1   1.00000   5.68222e-08        6
     1   109.470   1.29302e-07        2
   22000    263.83619   -6.7475495            0   -4.3882128    -5.303859 
SHAKE stats (type/ave/delta/count) on step 22100
     1   1.00000   2.22665e-08        6
     1   109.470   1.27454e-06        2
SHAKE stats (type/ave/delta/count) on step 22200
     1   1.00000   8.47242e-08        6
     1   109.470   1.56369e-07        2
SHAKE stats (type/ave/delta/count) on step 22300
     1   1.00000   1.44868e-07        6
     1   109.470   3.96327e-06        2
SHAKE stats (type/ave/delta/count) on step 22400
     1   1.00000   1.07530e-07        6
     1   109.470   1.03850e-05        2
SHAKE stats (type/ave/delta/count) on step 22500
     1   1.00000   2.66539e-08        6
     1   109.470   1.36590e-06        2
   22500     292.6441   -6.6880667            0   -4.0711173   -2.8969719 
SHAKE stats (type/ave/delta/count) on step 22600
     1   1.00000   9.09116e-08        6
     1   109.470   5.77088e-06        2
SHAKE stats (type/ave/delta/count) on step 22700
     1   1.00000   8.21187e-08        6
     1   109.470   4.40925e-06        2
SHAKE stats (type/ave/delta/count) on step 22800
     1   1.00000   3.84717e-08        6
     1   109.470   4.44568e-06        2
SHAKE stats (type/ave/delta/count) on step 22900
     1   1.00000   1.48136e-07        6
     1   109.470   6.88151e-06        2
SHAKE stats (type/ave/delta/count) on step 23000
     1   1.00000   6.76508e-08        6
     1   109.470   3.59744e-06        2
   23000    285.15099   -6.6405024            0   -4.0905596   -7.1113677 
SHAKE stats (type/ave/delta/count) on step 23100
     1   1.00000   1.00816e-07        6
     1   109.470   2.75587e-06        2
SHAKE stats (type/ave/delta/count) on step 23200
     1   1.00000   4.96697e-08        6
     1   109.470   3.68074e-06        2
SHAKE stats (type/ave/delta/count) on step 23300
     1   1.00000   4.68725e-08        6
     1   109.470   7.80702e-07        2
SHAKE stats (type/ave/delta/count) on step 23400
     1   1.00000   3.13283e-08        6
     1   109.470   4.74657e-06        2
SHAKE stats (type/ave/delta/count) on step 23500
     1   1.00000   4.18193e-08        6
     1   109.470   3.13012e-06        2
   23500    244.96907   -6.6676168            0    -4.476998   -1.6018373 
SHAKE stats (type/ave/delta/count) on step 23600
     1   1.00000   1.16945e-07        6
     1   109.470   1.68734e-05        2
SHAKE stats (type/ave/delta/count) on step 23700
     1   1.00000   2.29448e-07        6
     1   109.470   2.57681e-05        2
SHAKE stats (type/ave/delta/count) on step 23800
     1   1.00000   1.52258e-07        6
     1   109.470   1.45640e-06        2
SHAKE stats (type/ave/delta/count) on step 23900
     1   1.00000   3.38434e-08        6
     1   109.470   2.33997e-06        2
SHAKE stats (type/ave/delta/count) on step 24000
     1   1.00000   3.98447e-08        6
     1   109.470   2.40981e-06        2
   24000    324.67079   -6.7093361            0   -3.8059902   0.98955526 
SHAKE stats (type/ave/delta/count) on step 24100
     1   1.00000   9.25189e-08        6
     1   109.470   5.33374e-06        2
SHAKE stats (type/ave/delta/count) on step 24200
     1   1.00000   2.33139e-07        6
     1   109.470   1.87377e-05        2
SHAKE stats (type/ave/delta/count) on step 24300
     1   1.00000   2.18400e-07        6
     1   109.470   1.37797e-05        2
SHAKE stats (type/ave/delta/count) on step 24400
     1   1.00000   1.68663e-08        6
     1   109.470   6.88331e-06        2
SHAKE stats (type/ave/delta/count) on step 24500
     1   1.00000   5.03977e-08        6
     1   109.470   4.14153e-06        2
   24500    255.30226   -6.8944169            0   -4.6113943   0.13575697 
SHAKE stats (type/ave/delta/count) on step 24600
     1   1.00000   7.79190e-08        6
     1   109.470   2.13667e-06        2
SHAKE stats (type/ave/delta/count) on step 24700
     1   1.00000   1.20708e-07        6
     1   109.470   1.25086e-06        2
SHAKE stats (type/ave/delta/count) on step 24800
     1   1.00000   9.13903e-08        6
     1   109.470   3.42576e-06        2
SHAKE stats (type/ave/delta/count) on step 24900
     1   1.00000   8.16229e-08        6
     1   109.470   1.90227e-06        2
SHAKE stats (type/ave/delta/count) on step 25000
     1   1.00000   9.08177e-08        6
     1   109.470   9.70753e-06        2
   25000    360.16932   -7.0444996            0   -3.8237107    2.6076203 
SHAKE stats (type/ave/delta/count) on step 25100
     1   1.00000   4.73483e-08        6
     1   109.470   1.45404e-06        2
SHAKE stats (type/ave/delta/count) on step 25200
     1   1.00000   4.64542e-08        6
     1   109.470   6.47171e-06        2
SHAKE stats (type/ave/delta/count) on step 25300
     1   1.00000   1.45039e-07        6
     1   109.470   6.87677e-06        2
SHAKE stats (type/ave/delta/count) on step 25400
     1   1.00000   7.35495e-08        6
     1   109.470   6.92447e-06        2
SHAKE stats (type/ave/delta/count) on step 25500
     1   1.00000   1.03982e-07        6
     1   109.470   1.86490e-06        2
   25500    284.58107   -6.9789372            0   -4.4340908    0.3285969 
SHAKE stats (type/ave/delta/count) on step 25600
     1   1.00000   2.87632e-08        6
     1   109.470   1.93713e-06        2
SHAKE stats (type/ave/delta/count) on step 25700
     1   1.00000   5.81458e-08        6
     1   109.470   1.51366e-06        2
SHAKE stats (type/ave/delta/count) on step 25800
     1   1.00000   2.46000e-08        6
     1   109.470   6.31724e-06        2
SHAKE stats (type/ave/delta/count) on step 25900
     1   1.00000   3.44677e-08        6
     1   109.470   2.71514e-06        2
SHAKE stats (type/ave/delta/count) on step 26000
     1   1.00000   1.69042e-07        6
     1   109.470   1.13074e-05        2
   26000    311.57713   -6.8979194            0   -4.1116626 -0.014623511 
SHAKE stats (type/ave/delta/count) on step 26100
     1   1.00000   3.25411e-08        6
     1   109.470   2.22930e-06        2
SHAKE stats (type/ave/delta/count) on step 26200
     1   1.00000   1.08016e-07        6
     1   109.470   1.31539e-05        2
SHAKE stats (type/ave/delta/count) on step 26300
     1   1.00000   7.37136e-08        6
     1   109.470   3.18401e-06        2
SHAKE stats (type/ave/delta/count) on step 26400
     1   1.00000   1.29047e-07        6
     1   109.470   3.00376e-06        2
SHAKE stats (type/ave/delta/count) on step 26500
     1   1.00000   7.74951e-08        6
     1   109.470   6.65957e-06        2
   26500    286.45683   -6.7319926            0   -4.1703724    1.8546095 
SHAKE stats (type/ave/delta/count) on step 26600
     1   1.00000   1.92330e-07        6
     1   109.470   6.15771e-06        2
SHAKE stats (type/ave/delta/count) on step 26700
     1   1.00000   5.56827e-08        6
     1   109.470   4.17058e-07        2
SHAKE stats (type/ave/delta/count) on step 26800
     1   1.00000   6.10239e-08        6
     1   109.470   3.27941e-07        2
SHAKE stats (type/ave/delta/count) on step 26900
     1   1.00000   5.11287e-08        6
     1   109.470   1.19876e-06        2
SHAKE stats (type/ave/delta/count) on step 27000
     1   1.00000   6.92278e-08        6
     1   109.470   8.12493e-07        2
   27000    245.53669   -6.6545133            0   -4.4588187   -5.1093292 
SHAKE stats (type/ave/delta/count) on step 27100
     1   1.00000   8.83372e-08        6
     1   109.470   1.72005e-06        2
SHAKE stats (type/ave/delta/count) on step 27200
     1   1.00000   1.50859e-07        6
     1   109.470   1.61929e-06        2
SHAKE stats (type/ave/delta/count) on step 27300
     1   1.00000   1.56116e-07        6
     1   109.470   6.00433e-06        2
SHAKE stats (type/ave/delta/count) on step 27400
     1   1.00000   5.53563e-08        6
     1   109.470   4.10934e-06        2
SHAKE stats (type/ave/delta/count) on step 27500
     1   1.00000   4.32064e-08        6
     1   109.470   4.24031e-06        2
   27500    341.16026   -6.8722865            0   -3.8214847   -4.3979028 
SHAKE stats (type/ave/delta/count) on step 27600
     1   1.00000   6.83924e-08        6
     1   109.470   2.23226e-06        2
SHAKE stats (type/ave/delta/count) on step 27700
     1   1.00000   1.05692e-07        6
     1   109.470   4.62490e-06        2
SHAKE stats (type/ave/delta/count) on step 27800
     1   1.00000   1.52888e-07        6
     1   109.470   9.44172e-06        2
SHAKE stats (type/ave/delta/count) on step 27900
     1   1.00000   5.14743e-08        6
     1   109.470   4.78774e-07        2
SHAKE stats (type/ave/delta/count) on step 28000
     1   1.00000   6.33445e-08        6
     1   109.470   8.19882e-07        2
   28000    269.72336   -7.0842984            0   -4.6723161     7.962384 
SHAKE stats (type/ave/delta/count) on step 28100
     1   1.00000   4.15537e-08        6
     1   109.470   1.91186e-06        2
SHAKE stats (type/ave/delta/count) on step 28200
     1   1.00000   1.51114e-07        6
     1   109.470   2.08643e-06        2
SHAKE stats (type/ave/delta/count) on step 28300
     1   1.00000   1.15393e-07        6
     1   109.470   3.20304e-06        2
SHAKE stats (type/ave/delta/count) on step 28400
     1   1.00000   1.08151e-07        6
     1   109.470   9.76585e-06        2
SHAKE stats (type/ave/delta/count) on step 28500
     1   1.00000   8.81571e-08        6
     1   109.470   3.82972e-06        2
   28500    385.53819   -7.1458518            0   -3.6982035    10.120734 
SHAKE stats (type/ave/delta/count) on step 28600
     1   1.00000   4.77777e-08        6
     1   109.470   3.37577e-06        2
SHAKE stats (type/ave/delta/count) on step 28700
     1   1.00000   3.78882e-08        6
     1   109.470   4.99782e-06        2
SHAKE stats (type/ave/delta/count) on step 28800
     1   1.00000   6.94243e-08        6
     1   109.470   8.91191e-06        2
SHAKE stats (type/ave/delta/count) on step 28900
     1   1.00000   1.26752e-07        6
     1   109.470   4.61396e-06        2
SHAKE stats (type/ave/delta/count) on step 29000
     1   1.00000   1.21236e-07        6
     1   109.470   1.40145e-08        2
   29000    288.20433   -7.0671418            0   -4.4898947    17.560095 
SHAKE stats (type/ave/delta/count) on step 29100
     1   1.00000   5.97171e-08        6
     1   109.470   4.27678e-07        2
SHAKE stats (type/ave/delta/count) on step 29200
     1   1.00000   3.53403e-08        6
     1   109.470   3.81621e-06        2
SHAKE stats (type/ave/delta/count) on step 29300
     1   1.00000   1.36416e-07        6
     1   109.470   6.44641e-06        2
SHAKE stats (type/ave/delta/count) on step 29400
     1   1.00000   5.21499e-08        6
     1   109.470   3.27801e-06        2
SHAKE stats (type/ave/delta/count) on step 29500
     1   1.00000   2.02021e-07        6
     1   109.470   3.60960e-07        2
   29500    311.61602   -6.9435591            0   -4.1569546    14.147463 
SHAKE stats (type/ave/delta/count) on step 29600
     1   1.00000   1.28098e-07        6
     1   109.470   7.11923e-07        2
SHAKE stats (type/ave/delta/count) on step 29700
     1   1.00000   1.85102e-08        6
     1   109.470   1.34871e-07        2
SHAKE stats (type/ave/delta/count) on step 29800
     1   1.00000   2.62307e-08        6
     1   109.470   2.16255e-06        2
SHAKE stats (type/ave/delta/count) on step 29900
     1   1.00000   4.87425e-08        6
     1   109.470   2.06455e-06        2
SHAKE stats (type/ave/delta/count) on step 30000
     1   1.00000   8.22105e-08        6
     1   109.470   1.56450e-06        2
   30000    343.91915    -7.033515            0    -3.958042     4.514422 
SHAKE stats (type/ave/delta/count) on step 30100
     1   1.00000   8.40624e-08        6
     1   109.470   9.31975e-08        2
SHAKE stats (type/ave/delta/count) on step 30200
     1   1.00000   4.79922e-08        6
     1   109.470   3.30532e-06        2
SHAKE stats (type/ave/delta/count) on step 30300
     1   1.00000   2.85860e-08        6
     1   109.470   2.87333e-06        2
SHAKE stats (type/ave/delta/count) on step 30400
     1   1.00000   2.39795e-08        6
     1   109.470   1.96277e-06        2
SHAKE stats (type/ave/delta/count) on step 30500
     1   1.00000   3.81314e-08        6
     1   109.470   3.04565e-06        2
   30500    273.92128   -6.9774194            0   -4.5278975    11.382004 
SHAKE stats (type/ave/delta/count) on step 30600
     1   1.00000   2.00828e-07        6
     1   109.470   2.58230e-06        2
SHAKE stats (type/ave/delta/count) on step 30700
     1   1.00000   1.27217e-07        6
     1   109.470   1.08736e-05        2
SHAKE stats (type/ave/delta/count) on step 30800
     1   1.00000   1.40612e-07        6
     1   109.470   8.54994e-07        2
SHAKE stats (type/ave/delta/count) on step 30900
     1   1.00000   5.23866e-08        6
     1   109.470   4.38063e-06        2
SHAKE stats (type/ave/delta/count) on step 31000
     1   1.00000   4.08789e-08        6
     1   109.470   3.99632e-07        2
   31000    394.91677   -7.0803532            0   -3.5488375    2.7082692 
SHAKE stats (type/ave/delta/count) on step 31100
     1   1.00000   1.39652e-07        6
     1   109.470   5.10666e-06        2
SHAKE stats (type/ave/delta/count) on step 31200
     1   1.00000   9.68420e-08        6
     1   109.470   5.56472e-07        2
SHAKE stats (type/ave/delta/count) on step 31300
     1   1.00000   6.28815e-08        6
     1   109.470   8.35416e-06        2
SHAKE stats (type/ave/delta/count) on step 31400
     1   1.00000   5.06092e-08        6
     1   109.470   3.95990e-06        2
SHAKE stats (type/ave/delta/count) on step 31500
     1   1.00000   5.03443e-08        6
     1   109.470   1.64974e-06        2
   31500    267.32398   -7.0262802            0   -4.6357541  -0.14868419 
SHAKE stats (type/ave/delta/count) on step 31600
     1   1.00000   8.85999e-08        6
     1   109.470   6.71252e-07        2
SHAKE stats (type/ave/delta/count) on step 31700
     1   1.00000   3.87551e-08        6
     1   109.470   2.10649e-06        2
SHAKE stats (type/ave/delta/count) on step 31800
     1   1.00000   1.17733e-07        6
     1   109.470   2.39549e-06        2
SHAKE stats (type/ave/delta/count) on step 31900
     1   1.00000   1.48020e-07        6
     1   109.470   1.21666e-05        2
SHAKE stats (type/ave/delta/count) on step 32000
     1   1.00000   1.15162e-07        6
     1   109.470   4.82650e-06        2
   32000    360.74277   -6.9248835            0   -3.6989665     6.383913 
SHAKE stats (type/ave/delta/count) on step 32100
     1   1.00000   5.19184e-08        6
     1   109.470   4.54121e-06        2
SHAKE stats (type/ave/delta/count) on step 32200
     1   1.00000   6.50041e-08        6
     1   109.470   6.46519e-06        2
SHAKE stats (type/ave/delta/count) on step 32300
     1   1.00000   1.91888e-07        6
     1   109.470   1.85525e-05        2
SHAKE stats (type/ave/delta/count) on step 32400
     1   1.00000   8.72825e-08        6
     1   109.470   8.81395e-07        2
SHAKE stats (type/ave/delta/count) on step 32500
     1   1.00000   8.35833e-08        6
     1   109.470   3.86499e-06        2
   32500    282.36799   -7.0386303            0   -4.5135742    1.7211483 
SHAKE stats (type/ave/delta/count) on step 32600
     1   1.00000   6.80798e-08        6
     1   109.470   2.36903e-07        2
SHAKE stats (type/ave/delta/count) on step 32700
     1   1.00000   5.08371e-08        6
     1   109.470   2.82233e-07        2
SHAKE stats (type/ave/delta/count) on step 32800
     1   1.00000   9.26368e-08        6
     1   109.470   1.06799e-05        2
SHAKE stats (type/ave/delta/count) on step 32900
     1   1.00000   1.86754e-07        6
     1   109.470   2.90544e-06        2
SHAKE stats (type/ave/delta/count) on step 33000
     1   1.00000   3.90191e-07        6
     1   109.470   3.21102e-05        2
   33000    316.82979   -6.9793206            0   -4.1460923    6.8710831 
SHAKE stats (type/ave/delta/count) on step 33100
     1   1.00000   6.48883e-08        6
     1   109.470   1.89550e-06        2
SHAKE stats (type/ave/delta/count) on step 33200
     1   1.00000   1.90320e-07        6
     1   109.470   1.82552e-05        2
SHAKE stats (type/ave/delta/count) on step 33300
     1   1.00000   2.55642e-08        6
     1   109.470   2.77246e-06        2
SHAKE stats (type/ave/delta/count) on step 33400
     1   1.00000   7.58041e-08        6
     1   109.470   7.76998e-07        2
SHAKE stats (type/ave/delta/count) on step 33500
     1   1.00000   1.64314e-07        6
     1   109.470   1.65294e-05        2
   33500    328.42768   -6.9487983            0   -4.0118568    3.4722472 
SHAKE stats (type/ave/delta/count) on step 33600
     1   1.00000   1.13042e-07        6
     1   109.470   3.00080e-07        2
SHAKE stats (type/ave/delta/count) on step 33700
     1   1.00000   8.57609e-08        6
     1   109.470   5.84303e-07        2
SHAKE stats (type/ave/delta/count) on step 33800
     1   1.00000   3.02445e-08        6
     1   109.470   3.76355e-06        2
SHAKE stats (type/ave/delta/count) on step 33900
     1   1.00000   8.60717e-08        6
     1   109.470   4.46514e-06        2
SHAKE stats (type/ave/delta/count) on step 34000
     1   1.00000   1.22900e-07        6
     1   109.470   1.04557e-06        2
   34000    264.14253   -6.9576063            0   -4.5955302   -2.0088561 
SHAKE stats (type/ave/delta/count) on step 34100
     1   1.00000   1.63377e-07        6
     1   109.470   1.67067e-06        2
SHAKE stats (type/ave/delta/count) on step 34200
     1   1.00000   1.72217e-07        6
     1   109.470   7.26774e-06        2
SHAKE stats (type/ave/delta/count) on step 34300
     1   1.00000   1.73145e-07        6
     1   109.470   4.07331e-06        2
SHAKE stats (type/ave/delta/count) on step 34400
     1   1.00000   7.84856e-08        6
     1   109.470   7.00194e-06        2
SHAKE stats (type/ave/delta/count) on step 34500
     1   1.00000   3.58398e-08        6
     1   109.470   3.14386e-06        2
   34500    341.76379   -6.6826427            0   -3.6264439   0.80209684 
SHAKE stats (type/ave/delta/count) on step 34600
     1   1.00000   2.16415e-07        6
     1   109.470   6.09787e-06        2
SHAKE stats (type/ave/delta/count) on step 34700
     1   1.00000   5.17166e-08        6
     1   109.470   7.47754e-06        2
SHAKE stats (type/ave/delta/count) on step 34800
     1   1.00000   2.01171e-07        6
     1   109.470   2.61444e-06        2
SHAKE stats (type/ave/delta/count) on step 34900
     1   1.00000   6.45781e-08        6
     1   109.470   3.54178e-06        2
SHAKE stats (type/ave/delta/count) on step 35000
     1   1.00000   4.63839e-08        6
     1   109.470   9.79716e-07        2
   35000    261.82037   -7.1394905            0   -4.7981802    1.4779071 
SHAKE stats (type/ave/delta/count) on step 35100
     1   1.00000   7.61107e-08        6
     1   109.470   8.91413e-07        2
SHAKE stats (type/ave/delta/count) on step 35200
     1   1.00000   8.63994e-08        6
     1   109.470   1.28825e-05        2
SHAKE stats (type/ave/delta/count) on step 35300
     1   1.00000   2.33054e-07        6
     1   109.470   2.82279e-05        2
SHAKE stats (type/ave/delta/count) on step 35400
     1   1.00000   8.03229e-08        6
     1   109.470   1.10678e-05        2
SHAKE stats (type/ave/delta/count) on step 35500
     1   1.00000   2.85690e-07        6
     1   109.470   2.01936e-05        2
   35500    372.58519   -6.9813156            0   -3.6494985   -2.8775747 
SHAKE stats (type/ave/delta/count) on step 35600
     1   1.00000   4.14525e-08        6
     1   109.470   6.53689e-06        2
SHAKE stats (type/ave/delta/count) on step 35700
     1   1.00000   9.53704e-08        6
     1   109.470   8.40742e-06        2
SHAKE stats (type/ave/delta/count) on step 35800
     1   1.00000   1.04085e-07        6
     1   109.470   6.58265e-06        2
SHAKE stats (type/ave/delta/count) on step 35900
     1   1.00000   6.65780e-08        6
     1   109.470   1.86711e-05        2
SHAKE stats (type/ave/delta/count) on step 36000
     1   1.00000   1.56273e-07        6
     1   109.470   1.14339e-05        2
   36000    278.10382   -7.0651886            0   -4.5782646  0.074788603 
SHAKE stats (type/ave/delta/count) on step 36100
     1   1.00000   1.14911e-07        6
     1   109.470   2.88617e-06        2
SHAKE stats (type/ave/delta/count) on step 36200
     1   1.00000   3.54516e-08        6
     1   109.470   2.19390e-06        2
SHAKE stats (type/ave/delta/count) on step 36300
     1   1.00000   5.54509e-08        6
     1   109.470   3.52461e-07        2
SHAKE stats (type/ave/delta/count) on step 36400
     1   1.00000   1.42180e-07        6
     1   109.470   4.59731e-06        2
SHAKE stats (type/ave/delta/count) on step 36500
     1   1.00000   2.89644e-07        6
     1   109.470   1.03438e-05        2
   36500    301.92109   -6.9509132            0    -4.251005   -4.7700289 
SHAKE stats (type/ave/delta/count) on step 36600
     1   1.00000   1.90247e-07        6
     1   109.470   1.34838e-05        2
SHAKE stats (type/ave/delta/count) on step 36700
     1   1.00000   1.44880e-07        6
     1   109.470   6.19647e-06        2
SHAKE stats (type/ave/delta/count) on step 36800
     1   1.00000   6.94002e-08        6
     1   109.470   2.34524e-06        2
SHAKE stats (type/ave/delta/count) on step 36900
     1   1.00000   1.90523e-07        6
     1   109.470   1.92339e-06        2
SHAKE stats (type/ave/delta/count) on step 37000
     1   1.00000   1.22385e-07        6
     1   109.470   2.31205e-05        2
   37000    330.66745   -6.9554759            0   -3.9985054   -3.0513437 
SHAKE stats (type/ave/delta/count) on step 37100
     1   1.00000   2.93378e-07        6
     1   109.470   7.11077e-06        2
SHAKE stats (type/ave/delta/count) on step 37200
     1   1.00000   1.10420e-07        6
     1   109.470   6.13532e-06        2
SHAKE stats (type/ave/delta/count) on step 37300
     1   1.00000   1.11305e-07        6
     1   109.470   2.06543e-06        2
SHAKE stats (type/ave/delta/count) on step 37400
     1   1.00000   3.51618e-08        6
     1   109.470   1.46737e-06        2
SHAKE stats (type/ave/delta/count) on step 37500
     1   1.00000   4.93600e-08        6
     1   109.470   4.32512e-06        2
   37500    244.82094   -6.9174605            0   -4.7281663   -6.2905656 
SHAKE stats (type/ave/delta/count) on step 37600
     1   1.00000   2.61643e-07        6
     1   109.470   8.65310e-06        2
SHAKE stats (type/ave/delta/count) on step 37700
     1   1.00000   1.90295e-07        6
     1   109.470   4.54500e-06        2
SHAKE stats (type/ave/delta/count) on step 37800
     1   1.00000   1.11185e-07        6
     1   109.470   1.24891e-05        2
SHAKE stats (type/ave/delta/count) on step 37900
     1   1.00000   5.51151e-08        6
     1   109.470   7.55784e-06        2
SHAKE stats (type/ave/delta/count) on step 38000
     1   1.00000   4.12210e-08        6
     1   109.470   1.53358e-06        2
   38000    363.92233   -6.7871868            0   -3.5328368    1.9884458 
SHAKE stats (type/ave/delta/count) on step 38100
     1   1.00000   3.00447e-07        6
     1   109.470   9.32792e-06        2
SHAKE stats (type/ave/delta/count) on step 38200
     1   1.00000   2.69941e-07        6
     1   109.470   1.56450e-05        2
SHAKE stats (type/ave/delta/count) on step 38300
     1   1.00000   2.23502e-07        6
     1   109.470   1.72449e-05        2
SHAKE stats (type/ave/delta/count) on step 38400
     1   1.00000   1.61083e-07        6
     1   109.470   5.90160e-06        2
SHAKE stats (type/ave/delta/count) on step 38500
     1   1.00000   3.71372e-08        6
     1   109.470   3.11721e-06        2
   38500    218.67918   -6.7572903            0    -4.801767   -4.4206088 
SHAKE stats (type/ave/delta/count) on step 38600
     1   1.00000   4.52399e-08        6
     1   109.470   1.26199e-06        2
SHAKE stats (type/ave/delta/count) on step 38700
     1   1.00000   6.64092e-08        6
     1   109.470   7.41485e-07        2
SHAKE stats (type/ave/delta/count) on step 38800
     1   1.00000   1.77580e-07        6
     1   109.470   4.22174e-06        2
SHAKE stats (type/ave/delta/count) on step 38900
     1   1.00000   2.21050e-07        6
     1   109.470   4.08125e-06        2
SHAKE stats (type/ave/delta/count) on step 39000
     1   1.00000   1.77079e-07        6
     1   109.470   1.87645e-06        2
   39000    340.35074   -6.7933109            0   -3.7497482   -5.7062255 
SHAKE stats (type/ave/delta/count) on step 39100
     1   1.00000   6.63747e-08        6
     1   109.470   2.66508e-06        2
SHAKE stats (type/ave/delta/count) on step 39200
     1   1.00000   5.50426e-08        6
     1   109.470   2.41913e-06        2
SHAKE stats (type/ave/delta/count) on step 39300
     1   1.00000   9.34612e-08        6
     1   109.470   3.68897e-06        2
SHAKE stats (type/ave/delta/count) on step 39400
     1   1.00000   1.91787e-07        6
     1   109.470   1.68646e-05        2
SHAKE stats (type/ave/delta/count) on step 39500
     1   1.00000   9.17539e-08        6
     1   109.470   7.38393e-07        2
   39500    252.63269   -6.6871772            0    -4.428027   -5.4389478 
SHAKE stats (type/ave/delta/count) on step 39600
     1   1.00000   6.83811e-08        6
     1   109.470   6.81280e-07        2
SHAKE stats (type/ave/delta/count) on step 39700
     1   1.00000   5.73090e-08        6
     1   109.470   1.22496e-06        2
SHAKE stats (type/ave/delta/count) on step 39800
     1   1.00000   8.55014e-08        6
     1   109.470   1.11414e-05        2
SHAKE stats (type/ave/delta/count) on step 39900
     1   1.00000   1.34671e-07        6
     1   109.470   2.69872e-06        2
SHAKE stats (type/ave/delta/count) on step 40000
     1   1.00000   2.02548e-07        6
     1   109.470   9.18800e-06        2
   40000    289.31889   -6.8768075            0   -4.2895935    8.5069188 
SHAKE stats (type/ave/delta/count) on step 40100
     1   1.00000   1.20902e-07        6
     1   109.470   7.04437e-06        2
SHAKE stats (type/ave/delta/count) on step 40200
     1   1.00000   5.59608e-08        6
     1   109.470   6.57967e-06        2
SHAKE stats (type/ave/delta/count) on step 40300
     1   1.00000   6.68453e-08        6
     1   109.470   5.32869e-06        2
SHAKE stats (type/ave/delta/count) on step 40400
     1   1.00000   1.65647e-07        6
     1   109.470   5.76042e-07        2
SHAKE stats (type/ave/delta/count) on step 40500
     1   1.00000   4.45731e-08        6
     1   109.470   3.44031e-06        2
   40500    308.29927   -6.6936973            0   -3.9367526  -0.16671509 
SHAKE stats (type/ave/delta/count) on step 40600
     1   1.00000   5.49166e-08        6
     1   109.470   7.73371e-06        2
SHAKE stats (type/ave/delta/count) on step 40700
     1   1.00000   1.86857e-07        6
     1   109.470   9.68015e-06        2
SHAKE stats (type/ave/delta/count) on step 40800
     1   1.00000   1.12561e-07        6
     1   109.470   2.08633e-07        2
SHAKE stats (type/ave/delta/count) on step 40900
     1   1.00000   4.84065e-08        6
     1   109.470   3.38930e-06        2
SHAKE stats (type/ave/delta/count) on step 41000
     1   1.00000   1.00807e-07        6
     1   109.470   4.10726e-06        2
   41000    229.00387   -6.7929263            0   -4.7450752   -2.3279052 
SHAKE stats (type/ave/delta/count) on step 41100
     1   1.00000   1.06094e-07        6
     1   109.470   5.99650e-06        2
SHAKE stats (type/ave/delta/count) on step 41200
     1   1.00000   8.04923e-08        6
     1   109.470   4.55858e-06        2
SHAKE stats (type/ave/delta/count) on step 41300
     1   1.00000   1.15655e-07        6
     1   109.470   1.81472e-06        2
SHAKE stats (type/ave/delta/count) on step 41400
     1   1.00000   1.27760e-07        6
     1   109.470   1.45914e-05        2
SHAKE stats (type/ave/delta/count) on step 41500
     1   1.00000   5.36699e-08        6
     1   109.470   3.91529e-06        2
   41500    402.05185   -7.0174442            0   -3.4221237    2.3216754 
SHAKE stats (type/ave/delta/count) on step 41600
     1   1.00000   9.55999e-08        6
     1   109.470   3.72213e-06        2
SHAKE stats (type/ave/delta/count) on step 41700
     1   1.00000   1.60948e-07        6
     1   109.470   8.30787e-07        2
SHAKE stats (type/ave/delta/count) on step 41800
     1   1.00000   2.11201e-08        6
     1   109.470   1.06880e-06        2
SHAKE stats (type/ave/delta/count) on step 41900
     1   1.00000   9.51399e-08        6
     1   109.470   2.31413e-06        2
SHAKE stats (type/ave/delta/count) on step 42000
     1   1.00000   2.32637e-08        6
     1   109.470   1.92252e-06        2
   42000    234.41183   -6.9526182            0   -4.8564067    3.8357005 
SHAKE stats (type/ave/delta/count) on step 42100
     1   1.00000   1.35122e-07        6
     1   109.470   3.87096e-06        2
SHAKE stats (type/ave/delta/count) on step 42200
     1   1.00000   1.26616e-07        6
     1   109.470   1.13399e-05        2
SHAKE stats (type/ave/delta/count) on step 42300
     1   1.00000   2.72983e-07        6
     1   109.470   2.08315e-06        2
SHAKE stats (type/ave/delta/count) on step 42400
     1   1.00000   1.72379e-07        6
     1   109.470   5.96248e-06        2
SHAKE stats (type/ave/delta/count) on step 42500
     1   1.00000   9.00155e-08        6
     1   109.470   1.31260e-06        2
   42500    379.95872   -6.9814842            0   -3.5837299   -3.4989082 
SHAKE stats (type/ave/delta/count) on step 42600
     1   1.00000   1.95588e-08        6
     1   109.470   2.17778e-06        2
SHAKE stats (type/ave/delta/count) on step 42700
     1   1.00000   9.39734e-08        6
     1   109.470   5.28043e-06        2
SHAKE stats (type/ave/delta/count) on step 42800
     1   1.00000   5.27889e-08        6
     1   109.470   1.47624e-05        2
SHAKE stats (type/ave/delta/count) on step 42900
     1   1.00000   2.46967e-07        6
     1   109.470   1.77446e-05        2
SHAKE stats (type/ave/delta/count) on step 43000
     1   1.00000   3.53581e-07        6
     1   109.470   1.63081e-05        2
   43000    261.78519   -6.9551725            0   -4.6141767    -4.405375 
SHAKE stats (type/ave/delta/count) on step 43100
     1   1.00000   5.51604e-08        6
     1   109.470   3.39634e-06        2
SHAKE stats (type/ave/delta/count) on step 43200
     1   1.00000   4.65408e-08        6
     1   109.470   7.92026e-07        2
SHAKE stats (type/ave/delta/count) on step 43300
     1   1.00000   2.07480e-07        6
     1   109.470   5.55954e-06        2
SHAKE stats (type/ave/delta/count) on step 43400
     1   1.00000   1.60627e-07        6
     1   109.470   5.28002e-06        2
SHAKE stats (type/ave/delta/count) on step 43500
     1   1.00000   1.06768e-07        6
     1   109.470   4.85671e-06        2
   43500    276.47935   -6.7109405            0   -4.2385433    -4.267601 
SHAKE stats (type/ave/delta/count) on step 43600
     1   1.00000   1.54519e-07        6
     1   109.470   5.31602e-06        2
SHAKE stats (type/ave/delta/count) on step 43700
     1   1.00000   7.65334e-08        6
     1   109.470   4.69055e-06        2
SHAKE stats (type/ave/delta/count) on step 43800
     1   1.00000   5.73843e-08        6
     1   109.470   4.27646e-06        2
SHAKE stats (type/ave/delta/count) on step 43900
     1   1.00000   8.48089e-08        6
     1   109.470   8.89777e-06        2
SHAKE stats (type/ave/delta/count) on step 44000
     1   1.00000   4.79612e-08        6
     1   109.470   3.85970e-06        2
   44000    286.41418   -6.5146684            0   -3.9534297   -5.8053626 
SHAKE stats (type/ave/delta/count) on step 44100
     1   1.00000   8.47783e-08        6
     1   109.470   1.04238e-05        2
SHAKE stats (type/ave/delta/count) on step 44200
     1   1.00000   7.69931e-08        6
     1   109.470   1.01639e-05        2
SHAKE stats (type/ave/delta/count) on step 44300
     1   1.00000   4.50174e-08        6
     1   109.470   2.28398e-06        2
SHAKE stats (type/ave/delta/count) on step 44400
     1   1.00000   6.34922e-08        6
     1   109.470   6.86426e-06        2
SHAKE stats (type/ave/delta/count) on step 44500
     1   1.00000   2.04197e-07        6
     1   109.470   5.00941e-06        2
   44500    247.86618   -6.9704999            0   -4.7539739   -1.7446352 
SHAKE stats (type/ave/delta/count) on step 44600
     1   1.00000   3.46227e-07        6
     1   109.470   9.07208e-06        2
SHAKE stats (type/ave/delta/count) on step 44700
     1   1.00000   1.91439e-07        6
     1   109.470   3.83258e-06        2
SHAKE stats (type/ave/delta/count) on step 44800
     1   1.00000   7.06108e-08        6
     1   109.470   2.11089e-07        2
SHAKE stats (type/ave/delta/count) on step 44900
     1   1.00000   1.24221e-07        6
     1   109.470   3.56004e-07        2
SHAKE stats (type/ave/delta/count) on step 45000
     1   1.00000   9.22752e-08        6
     1   109.470   9.11025e-06        2
   45000    373.65181   -6.7917195            0   -3.4503643   -6.1723431 
SHAKE stats (type/ave/delta/count) on step 45100
     1   1.00000   1.68522e-07        6
     1   109.470   7.65908e-06        2
SHAKE stats (type/ave/delta/count) on step 45200
     1   1.00000   1.47599e-07        6
     1   109.470   3.21462e-06        2
SHAKE stats (type/ave/delta/count) on step 45300
     1   1.00000   1.03377e-07        6
     1   109.470   1.17686e-06        2
SHAKE stats (type/ave/delta/count) on step 45400
     1   1.00000   1.48392e-07        6
     1   109.470   4.35826e-07        2
SHAKE stats (type/ave/delta/count) on step 45500
     1   1.00000   6.96290e-08        6
     1   109.470   1.60840e-06        2
   45500    225.77336   -6.8951617            0   -4.8761992   -3.2516073 
SHAKE stats (type/ave/delta/count) on step 45600
     1   1.00000   4.24565e-08        6
     1   109.470   2.87028e-06        2
SHAKE stats (type/ave/delta/count) on step 45700
     1   1.00000   1.84367e-08        6
     1   109.470   1.55833e-06        2
SHAKE stats (type/ave/delta/count) on step 45800
     1   1.00000   1.21818e-07        6
     1   109.470   2.48389e-06        2
SHAKE stats (type/ave/delta/count) on step 45900
     1   1.00000   1.58869e-07        6
     1   109.470   2.35668e-05        2
SHAKE stats (type/ave/delta/count) on step 46000
     1   1.00000   5.82297e-08        6
     1   109.470   4.39414e-06        2
   46000    349.99805   -6.7891844            0   -3.6593513    2.8982684 
SHAKE stats (type/ave/delta/count) on step 46100
     1   1.00000   3.93164e-08        6
     1   109.470   4.97329e-07        2
SHAKE stats (type/ave/delta/count) on step 46200
     1   1.00000   1.34015e-07        6
     1   109.470   2.26418e-05        2
SHAKE stats (type/ave/delta/count) on step 46300
     1   1.00000   1.86250e-07        6
     1   109.470   3.24215e-05        2
SHAKE stats (type/ave/delta/count) on step 46400
     1   1.00000   5.14087e-08        6
     1   109.470   2.66625e-05        2
SHAKE stats (type/ave/delta/count) on step 46500
     1   1.00000   1.77283e-07        6
     1   109.470   1.99853e-05        2
   46500    266.10155   -7.0333891            0   -4.6537946    2.3659549 
SHAKE stats (type/ave/delta/count) on step 46600
     1   1.00000   6.76556e-08        6
     1   109.470   9.16500e-06        2
SHAKE stats (type/ave/delta/count) on step 46700
     1   1.00000   3.38666e-08        6
     1   109.470   3.52087e-09        2
SHAKE stats (type/ave/delta/count) on step 46800
     1   1.00000   8.18037e-08        6
     1   109.470   2.22427e-06        2
SHAKE stats (type/ave/delta/count) on step 46900
     1   1.00000   2.71933e-07        6
     1   109.470   1.87915e-05        2
SHAKE stats (type/ave/delta/count) on step 47000
     1   1.00000   4.28371e-07        6
     1   109.470   4.01933e-05        2
   47000    329.86277   -7.1692092            0   -4.2194344    3.7133445 
SHAKE stats (type/ave/delta/count) on step 47100
     1   1.00000   1.68761e-07        6
     1   109.470   1.64667e-05        2
SHAKE stats (type/ave/delta/count) on step 47200
     1   1.00000   1.08413e-07        6
     1   109.470   2.08510e-06        2
SHAKE stats (type/ave/delta/count) on step 47300
     1   1.00000   4.90600e-08        6
     1   109.470   1.70072e-06        2
SHAKE stats (type/ave/delta/count) on step 47400
     1   1.00000   9.49237e-08        6
     1   109.470   1.81278e-05        2
SHAKE stats (type/ave/delta/count) on step 47500
     1   1.00000   1.25524e-07        6
     1   109.470   1.90173e-05        2
   47500    331.86159   -7.0494902            0   -4.0818411    7.1278325 
SHAKE stats (type/ave/delta/count) on step 47600
     1   1.00000   1.88953e-07        6
     1   109.470   1.12932e-05        2
SHAKE stats (type/ave/delta/count) on step 47700
     1   1.00000   1.29843e-07        6
     1   109.470   2.57952e-06        2
SHAKE stats (type/ave/delta/count) on step 47800
     1   1.00000   5.14493e-08        6
     1   109.470   3.10234e-06        2
SHAKE stats (type/ave/delta/count) on step 47900
     1   1.00000   3.89830e-08        6
     1   109.470   1.04031e-06        2
SHAKE stats (type/ave/delta/count) on step 48000
     1   1.00000   6.64968e-08        6
     1   109.470   2.72960e-06        2
   48000     251.6439   -6.9593752            0   -4.7090672   -3.9349606 
SHAKE stats (type/ave/delta/count) on step 48100
     1   1.00000   1.64767e-07        6
     1   109.470   9.24771e-06        2
SHAKE stats (type/ave/delta/count) on step 48200
     1   1.00000   1.38066e-07        6
     1   109.470   2.97075e-07        2
SHAKE stats (type/ave/delta/count) on step 48300
     1   1.00000   8.31650e-08        6
     1   109.470   1.11168e-06        2
SHAKE stats (type/ave/delta/count) on step 48400
     1   1.00000   6.19171e-08        6
     1   109.470   6.05579e-06        2
SHAKE stats (type/ave/delta/count) on step 48500
     1   1.00000   5.09584e-08        6
     1   109.470   1.85088e-06        2
   48500    356.93642   -6.8200388            0   -3.6281598   -5.8539724 
SHAKE stats (type/ave/delta/count) on step 48600
     1   1.00000   6.91082e-08        6
     1   109.470   1.10375e-05        2
SHAKE stats (type/ave/delta/count) on step 48700
     1   1.00000   2.08548e-07        6
     1   109.470   1.03281e-05        2
SHAKE stats (type/ave/delta/count) on step 48800
     1   1.00000   1.54249e-07        6
     1   109.470   1.23794e-05        2
SHAKE stats (type/ave/delta/count) on step 48900
     1   1.00000   5.43022e-08        6
     1   109.470   5.56203e-07        2
SHAKE stats (type/ave/delta/count) on step 49000
     1   1.00000   4.08311e-08        6
     1   109.470   1.54960e-06        2
   49000    230.34795    -6.877485            0   -4.8176146   -1.8277065 
SHAKE stats (type/ave/delta/count) on step 49100
     1   1.00000   1.62840e-07        6
     1   109.470   7.19387e-06        2
SHAKE stats (type/ave/delta/count) on step 49200
     1   1.00000   2.05497e-07        6
     1   109.470   2.46577e-05        2
SHAKE stats (type/ave/delta/count) on step 49300
     1   1.00000   2.07258e-07        6
     1   109.470   7.19836e-07        2
SHAKE stats (type/ave/delta/count) on step 49400
     1   1.00000   1.52848e-07        6
     1   109.470   3.97521e-06        2
SHAKE stats (type/ave/delta/count) on step 49500
     1   1.00000   4.25842e-08        6
     1   109.470   9.09915e-07        2
   49500    357.20104   -6.9252144            0    -3.730969    2.1927284 
SHAKE stats (type/ave/delta/count) on step 49600
     1   1.00000   5.14907e-08        6
     1   109.470   2.55699e-06        2
SHAKE stats (type/ave/delta/count) on step 49700
     1   1.00000   2.93299e-07        6
     1   109.470   9.90391e-06        2
SHAKE stats (type/ave/delta/count) on step 49800
     1   1.00000   2.35158e-07        6
     1   109.470   1.01258e-06        2
SHAKE stats (type/ave/delta/count) on step 49900
     1   1.00000   1.38674e-07        6
     1   109.470   5.32617e-06        2
SHAKE stats (type/ave/delta/count) on step 50000
     1   1.00000   3.43389e-08        6
     1   109.470   1.72864e-06        2
   50000    267.04002   -6.9848078            0    -4.596821    6.4940471 
SHAKE stats (type/ave/delta/count) on step 50100
     1   1.00000   3.95571e-08        6
     1   109.470   2.57605e-06        2
SHAKE stats (type/ave/delta/count) on step 50200
     1   1.00000   6.58878e-08        6
     1   109.470   4.19228e-06        2
SHAKE stats (type/ave/delta/count) on step 50300
     1   1.00000   1.06047e-07        6
     1   109.470   3.59243e-06        2
SHAKE stats (type/ave/delta/count) on step 50400
     1   1.00000   1.75908e-07        6
     1   109.470   7.11089e-06        2
SHAKE stats (type/ave/delta/count) on step 50500
     1   1.00000   1.87229e-07        6
     1   109.470   7.07392e-06        2
   50500    317.44726   -6.9097714            0   -4.0710215    4.9507201 
SHAKE stats (type/ave/delta/count) on step 50600
     1   1.00000   1.62321e-07        6
     1   109.470   4.05028e-06        2
SHAKE stats (type/ave/delta/count) on step 50700
     1   1.00000   8.43463e-09        6
     1   109.470   1.63264e-07        2
SHAKE stats (type/ave/delta/count) on step 50800
     1   1.00000   2.86714e-08        6
     1   109.470   9.06570e-07        2
SHAKE stats (type/ave/delta/count) on step 50900
     1   1.00000   1.17375e-07        6
     1   109.470   3.02858e-06        2
SHAKE stats (type/ave/delta/count) on step 51000
     1   1.00000   1.21909e-07        6
     1   109.470   8.17890e-06        2
   51000    317.05096   -6.9446789            0   -4.1094728    1.4510923 
SHAKE stats (type/ave/delta/count) on step 51100
     1   1.00000   8.01048e-08        6
     1   109.470   7.58466e-06        2
SHAKE stats (type/ave/delta/count) on step 51200
     1   1.00000   7.03787e-08        6
     1   109.470   1.57304e-06        2
SHAKE stats (type/ave/delta/count) on step 51300
     1   1.00000   4.08660e-08        6
     1   109.470   1.14334e-06        2
SHAKE stats (type/ave/delta/count) on step 51400
     1   1.00000   6.98739e-08        6
     1   109.470   8.88804e-07        2
SHAKE stats (type/ave/delta/count) on step 51500
     1   1.00000   1.59463e-07        6
     1   109.470   3.33210e-07        2
   51500    256.23618   -6.8496144            0   -4.5582403   -6.7703483 
SHAKE stats (type/ave/delta/count) on step 51600
     1   1.00000   2.18589e-07        6
     1   109.470   3.21400e-06        2
SHAKE stats (type/ave/delta/count) on step 51700
     1   1.00000   2.90140e-07        6
     1   109.470   1.93085e-06        2
SHAKE stats (type/ave/delta/count) on step 51800
     1   1.00000   1.64495e-07        6
     1   109.470   3.25121e-06        2
SHAKE stats (type/ave/delta/count) on step 51900
     1   1.00000   6.21857e-08        6
     1   109.470   3.53221e-06        2
SHAKE stats (type/ave/delta/count) on step 52000
     1   1.00000   1.88443e-08        6
     1   109.470   2.64392e-06        2
   52000     316.3412   -6.4078577            0   -3.5789986   -10.251648 
SHAKE stats (type/ave/delta/count) on step 52100
     1   1.00000   5.11908e-08        6
     1   109.470   3.51163e-06        2
SHAKE stats (type/ave/delta/count) on step 52200
     1   1.00000   3.75838e-08        6
     1   109.470   2.60157e-07        2
SHAKE stats (type/ave/delta/count) on step 52300
     1   1.00000   1.36074e-07        6
     1   109.470   1.20583e-05        2
SHAKE stats (type/ave/delta/count) on step 52400
     1   1.00000   2.62756e-08        6
     1   109.470   2.46455e-06        2
SHAKE stats (type/ave/delta/count) on step 52500
     1   1.00000   4.57124e-08        6
     1   109.470   1.31784e-06        2
   52500    245.31923   -6.8826429            0   -4.6888928   -2.1500848 
SHAKE stats (type/ave/delta/count) on step 52600
     1   1.00000   4.91490e-08        6
     1   109.470   2.92449e-06        2
SHAKE stats (type/ave/delta/count) on step 52700
     1   1.00000   3.01122e-08        6
     1   109.470   3.52139e-06        2
SHAKE stats (type/ave/delta/count) on step 52800
     1   1.00000   3.41901e-08        6
     1   109.470   5.00893e-06        2
SHAKE stats (type/ave/delta/count) on step 52900
     1   1.00000   1.79712e-07        6
     1   109.470   8.03578e-06        2
SHAKE stats (type/ave/delta/count) on step 53000
     1   1.00000   1.61048e-07        6
     1   109.470   1.81842e-05        2
   53000    366.02872   -7.0171748            0   -3.7439886     1.451187 
SHAKE stats (type/ave/delta/count) on step 53100
     1   1.00000   6.09163e-08        6
     1   109.470   4.80420e-06        2
SHAKE stats (type/ave/delta/count) on step 53200
     1   1.00000   1.08529e-07        6
     1   109.470   5.47089e-06        2
SHAKE stats (type/ave/delta/count) on step 53300
     1   1.00000   2.51833e-07        6
     1   109.470   9.30349e-06        2
SHAKE stats (type/ave/delta/count) on step 53400
     1   1.00000   3.03684e-07        6
     1   109.470   1.00351e-06        2
SHAKE stats (type/ave/delta/count) on step 53500
     1   1.00000   1.67058e-07        6
     1   109.470   3.55712e-06        2
   53500    251.56332   -6.7197805            0   -4.4701931   -8.4517331 
SHAKE stats (type/ave/delta/count) on step 53600
     1   1.00000   3.14159e-08        6
     1   109.470   3.07830e-06        2
SHAKE stats (type/ave/delta/count) on step 53700
     1   1.00000   6.17257e-08        6
     1   109.470   2.53292e-07        2
SHAKE stats (type/ave/delta/count) on step 53800
     1   1.00000   9.14679e-08        6
     1   109.470   1.32941e-06        2
SHAKE stats (type/ave/delta/count) on step 53900
     1   1.00000   5.22540e-08        6
     1   109.470   3.40668e-07        2
SHAKE stats (type/ave/delta/count) on step 54000
     1   1.00000   1.06804e-07        6
     1   109.470   3.84537e-06        2
   54000    294.97681    -6.773753            0   -4.1359435   -6.2765227 
SHAKE stats (type/ave/delta/count) on step 54100
     1   1.00000   1.71709e-07        6
     1   109.470   1.33524e-05        2
SHAKE stats (type/ave/delta/count) on step 54200
     1   1.00000   1.22466e-07        6
     1   109.470   2.75027e-06        2
SHAKE stats (type/ave/delta/count) on step 54300
     1   1.00000   3.95365e-08        6
     1   109.470   2.00543e-06        2
SHAKE stats (type/ave/delta/count) on step 54400
     1   1.00000   1.62906e-08        6
     1   109.470   2.79474e-06        2
SHAKE stats (type/ave/delta/count) on step 54500
     1   1.00000   1.79145e-07        6
     1   109.470   8.70813e-06        2
   54500    303.44583   -6.6345939            0   -3.9210508   -8.0176234 
SHAKE stats (type/ave/delta/count) on step 54600
     1   1.00000   2.50713e-07        6
     1   109.470   1.83557e-05        2
SHAKE stats (type/ave/delta/count) on step 54700
     1   1.00000   2.25662e-07        6
     1   109.470   4.27214e-06        2
SHAKE stats (type/ave/delta/count) on step 54800
     1   1.00000   7.56719e-08        6
     1   109.470   1.98194e-06        2
SHAKE stats (type/ave/delta/count) on step 54900
     1   1.00000   3.73863e-08        6
     1   109.470   3.70126e-06        2
SHAKE stats (type/ave/delta/count) on step 55000
     1   1.00000   6.69666e-08        6
     1   109.470   2.87692e-06        2
   55000    255.56609   -6.9154249            0   -4.6300431    4.0027171 
SHAKE stats (type/ave/delta/count) on step 55100
     1   1.00000   8.86256e-08        6
     1   109.470   4.77491e-06        2
SHAKE stats (type/ave/delta/count) on step 55200
     1   1.00000   1.43115e-07        6
     1   109.470   4.38468e-06        2
SHAKE stats (type/ave/delta/count) on step 55300
     1   1.00000   1.42405e-07        6
     1   109.470   1.67925e-05        2
SHAKE stats (type/ave/delta/count) on step 55400
     1   1.00000   7.80470e-08        6
     1   109.470   1.70819e-06        2
SHAKE stats (type/ave/delta/count) on step 55500
     1   1.00000   5.16573e-08        6
     1   109.470   2.90354e-06        2
   55500    354.13826   -6.8231192            0   -3.6562626    1.5159444 
SHAKE stats (type/ave/delta/count) on step 55600
     1   1.00000   3.28915e-08        6
     1   109.470   1.19757e-06        2
SHAKE stats (type/ave/delta/count) on step 55700
     1   1.00000   1.28008e-07        6
     1   109.470   2.29406e-06        2
SHAKE stats (type/ave/delta/count) on step 55800
     1   1.00000   7.39610e-08        6
     1   109.470   8.76072e-06        2
SHAKE stats (type/ave/delta/count) on step 55900
     1   1.00000   7.53182e-08        6
     1   109.470   2.19488e-06        2
SHAKE stats (type/ave/delta/count) on step 56000
     1   1.00000   6.66531e-08        6
     1   109.470   1.09652e-06        2
   56000    275.70554   -7.0965922            0   -4.6311146    2.4895797 
SHAKE stats (type/ave/delta/count) on step 56100
     1   1.00000   2.92533e-08        6
     1   109.470   2.44519e-06        2
SHAKE stats (type/ave/delta/count) on step 56200
     1   1.00000   4.17195e-08        6
     1   109.470   6.95319e-06        2
SHAKE stats (type/ave/delta/count) on step 56300
     1   1.00000   7.26686e-08        6
     1   109.470   4.08945e-06        2
SHAKE stats (type/ave/delta/count) on step 56400
     1   1.00000   1.64433e-07        6
     1   109.470   8.71036e-06        2
SHAKE stats (type/ave/delta/count) on step 56500
     1   1.00000   3.13895e-08        6
     1   109.470   4.01977e-06        2
   56500    316.91573   -6.6608185            0   -3.8268217   -5.9379372 
SHAKE stats (type/ave/delta/count) on step 56600
     1   1.00000   6.95406e-08        6
     1   109.470   8.91515e-06        2
SHAKE stats (type/ave/delta/count) on step 56700
     1   1.00000   1.09591e-07        6
     1   109.470   1.86968e-06        2
SHAKE stats (type/ave/delta/count) on step 56800
     1   1.00000   2.88516e-07        6
     1   109.470   1.12408e-05        2
SHAKE stats (type/ave/delta/count) on step 56900
     1   1.00000   1.45899e-07        6
     1   109.470   5.76060e-06        2
SHAKE stats (type/ave/delta/count) on step 57000
     1   1.00000   9.83257e-08        6
     1   109.470   3.62784e-06        2
   57000     295.9688   -7.1520741            0   -4.5053939    2.4374701 
SHAKE stats (type/ave/delta/count) on step 57100
     1   1.00000   9.75928e-08        6
     1   109.470   5.91675e-07        2
SHAKE stats (type/ave/delta/count) on step 57200
     1   1.00000   4.36926e-08        6
     1   109.470   3.77195e-06        2
SHAKE stats (type/ave/delta/count) on step 57300
     1   1.00000   8.83789e-08        6
     1   109.470   3.19939e-06        2
SHAKE stats (type/ave/delta/count) on step 57400
     1   1.00000   5.02126e-08        6
     1   109.470   2.28766e-07        2
SHAKE stats (type/ave/delta/count) on step 57500
     1   1.00000   1.12449e-07        6
     1   109.470   1.09054e-05        2
   57500    298.81366   -6.8436127            0   -4.1714924    2.8437022 
SHAKE stats (type/ave/delta/count) on step 57600
     1   1.00000   1.59323e-07        6
     1   109.470   1.25384e-06        2
SHAKE stats (type/ave/delta/count) on step 57700
     1   1.00000   1.70954e-07        6
     1   109.470   5.44991e-06        2
SHAKE stats (type/ave/delta/count) on step 57800
     1   1.00000   3.55035e-08        6
     1   109.470   1.74052e-06        2
SHAKE stats (type/ave/delta/count) on step 57900
     1   1.00000   4.60929e-08        6
     1   109.470   2.26496e-06        2
SHAKE stats (type/ave/delta/count) on step 58000
     1   1.00000   3.46052e-08        6
     1   109.470   5.56549e-06        2
   58000    323.79732   -6.9356149            0   -4.0400799   0.29916676 
SHAKE stats (type/ave/delta/count) on step 58100
     1   1.00000   4.89234e-08        6
     1   109.470   7.84897e-06        2
SHAKE stats (type/ave/delta/count) on step 58200
     1   1.00000   1.63170e-07        6
     1   109.470   8.01980e-06        2
SHAKE stats (type/ave/delta/count) on step 58300
     1   1.00000   6.87305e-08        6
     1   109.470   2.69021e-07        2
SHAKE stats (type/ave/delta/count) on step 58400
     1   1.00000   5.49887e-08        6
     1   109.470   3.22476e-06        2
SHAKE stats (type/ave/delta/count) on step 58500
     1   1.00000   4.32595e-08        6
     1   109.470   2.08383e-06        2
   58500     272.9035   -7.1028075            0    -4.662387 -0.0082307332 
SHAKE stats (type/ave/delta/count) on step 58600
     1   1.00000   3.03058e-07        6
     1   109.470   2.05056e-05        2
SHAKE stats (type/ave/delta/count) on step 58700
     1   1.00000   8.39369e-08        6
     1   109.470   5.31419e-06        2
SHAKE stats (type/ave/delta/count) on step 58800
     1   1.00000   1.08637e-08        6
     1   109.470   5.33735e-06        2
SHAKE stats (type/ave/delta/count) on step 58900
     1   1.00000   3.93365e-08        6
     1   109.470   4.05512e-06        2
SHAKE stats (type/ave/delta/count) on step 59000
     1   1.00000   8.38265e-08        6
     1   109.470   1.87020e-06        2
   59000    359.40943   -6.8523796            0   -3.6383859   -2.4280215 
SHAKE stats (type/ave/delta/count) on step 59100
     1   1.00000   5.38331e-08        6
     1   109.470   5.18167e-06        2
SHAKE stats (type/ave/delta/count) on step 59200
     1   1.00000   1.80239e-07        6
     1   109.470   2.18202e-06        2
SHAKE stats (type/ave/delta/count) on step 59300
     1   1.00000   4.07624e-08        6
     1   109.470   1.71924e-06        2
SHAKE stats (type/ave/delta/count) on step 59400
     1   1.00000   6.14589e-08        6
     1   109.470   1.53422e-06        2
SHAKE stats (type/ave/delta/count) on step 59500
     1   1.00000   4.46034e-08        6
     1   109.470   2.34508e-06        2
   59500    243.49104   -6.8904025            0   -4.7130009   -4.4328531 
SHAKE stats (type/ave/delta/count) on step 59600
     1   1.00000   5.29229e-08        6
     1   109.470   5.67315e-07        2
SHAKE stats (type/ave/delta/count) on step 59700
     1   1.00000   1.24142e-07        6
     1   109.470   1.75371e-06        2
SHAKE stats (type/ave/delta/count) on step 59800
     1   1.00000   1.59204e-07        6
     1   109.470   2.68329e-06        2
SHAKE stats (type/ave/delta/count) on step 59900
     1   1.00000   1.16726e-07        6
     1   109.470   2.16417e-06        2
SHAKE stats (type/ave/delta/count) on step 60000
     1   1.00000   1.53061e-07        6
     1   109.470   1.67096e-06        2
   60000    327.96777    -6.666205            0   -3.7333761   -6.9108706 
Loop time of 1.0514 on 1 procs for 50000 steps with 6 atoms

Performance: 8217.646 ns/day, 0.003 hours/ns, 47555.821 timesteps/s
99.7% CPU use with 1 MPI tasks x no OpenMP threads

MPI task timing breakdown:
Section |  min time  |  avg time  |  max time  |%varavg| %total
---------------------------------------------------------------
Pair    | 0.012244   | 0.012244   | 0.012244   |   0.0 |  1.16
Bond    | 0.001299   | 0.001299   | 0.001299   |   0.0 |  0.12
Kspace  | 0.98861    | 0.98861    | 0.98861    |   0.0 | 94.03
Neigh   | 0.001655   | 0.001655   | 0.001655   |   0.0 |  0.16
Comm    | 0.009648   | 0.009648   | 0.009648   |   0.0 |  0.92
Output  | 0.001388   | 0.001388   | 0.001388   |   0.0 |  0.13
Modify  | 0.031404   | 0.031404   | 0.031404   |   0.0 |  2.99
Other   |            | 0.005146   |            |       |  0.49

Nlocal:        6.00000 ave           6 max           6 min
Histogram: 1 0 0 0 0 0 0 0 0 0
Nghost:        42.0000 ave          42 max          42 min
Histogram: 1 0 0 0 0 0 0 0 0 0
Neighs:        15.0000 ave          15 max          15 min
Histogram: 1 0 0 0 0 0 0 0 0 0

Total # of neighbors = 15
Ave neighs/atom = 2.5000000
Ave special neighs/atom = 2.0000000
Neighbor list builds = 1389
Dangerous builds = 0

write_data  system_after_nvt.data
System init for write_data ...
PPPM initialization ...
  using 12-bit tables for long-range coulomb (../kspace.cpp:340)
  G vector (1/distance) = 0.21257584
  grid = 8 8 8
  stencil order = 5
  estimated absolute RMS force accuracy = 0.020060853
  estimated relative force accuracy = 6.0412662e-05
  using double precision FFTW3
  3d grid and FFT values/proc = 2197 512
Total wall time: 0:00:01
