LAMMPS data file via write_data, version 29 Sep 2021, timestep = 60000

6 atoms
2 atom types
4 bonds
1 bond types
2 angles
1 angle types

1.9070746996085468 29.127125300391853 xlo xhi
1.9070746996085468 29.127125300391853 ylo yhi
1.9070746996085468 29.127125300391853 zlo zhi

Masses

1 15.9994
2 1.008

Pair Coeffs # lj/charmm/coul/long

1 0.1553 3.166 0.1553 3.166
2 0 0 0 0

Bond Coeffs # harmonic

1 600 1

Angle Coeffs # harmonic

1 75 109.47

Atoms # full

5 2 2 0.4238 3.3511460942646396 29.028776183601867 28.89618159899399 0 -1 -1
6 2 2 0.4238 2.079225835761597 28.291727943291658 28.185122174672948 0 -1 -1
4 2 1 -0.8476 2.9997352808739968 28.653822576697976 28.038323476104527 0 -1 -1
3 1 2 0.4238 4.134616421856057 2.037543467138706 4.240050257182181 0 0 0
1 1 1 -0.8476 4.175610457178111 2.341948886815677 3.2883901712413377 0 0 0
2 1 2 0.4238 4.952944806079417 2.9596445549763524 3.169211877492187 0 0 0

Velocities

5 0.0017299796005055084 -0.010596009737416265 0.00429576267611924
6 -0.006691726518526725 0.0021021396640011052 0.00619798055859349
4 -0.0075271009801175575 0.002645576075923215 0.002300162122016738
3 0.00921935529578834 0.003281221072926993 -0.0005911544426288566
1 0.006952996244638069 -0.0022818150786166496 -0.0024682170448899294
2 0.0048548234723175526 -0.000561118559346569 -0.007235150366470433

Bonds

1 1 4 5
2 1 4 6
3 1 1 2
4 1 1 3

Angles

1 1 5 4 6
2 1 2 1 3
