LAMMPS Description

            6  atoms
            4  bonds
            2  angles
            0  dihedrals
            0  impropers

            2  atom types
            1  bond types
            1  angle types
            0  dihedral types
            0  improper types

    0.0 31.0342 xlo xhi
    0.0 31.0342 ylo yhi
    0.0 31.0342 zlo zhi

Masses

1 15.9994 #O 
2 1.008 #H 

Atoms #full

1 1 1 -0.8476 0.0 0.0 0.0
2 1 2 0.4238 0.8164984 0.0 0.577359
3 1 2 0.4238 -0.8164904 0.0 0.577359
4 2 1 -0.8476 3.9199104 0.01 0.01
5 2 2 0.4238 3.9199104 0.01 0.587359
6 2 2 0.4238 2.2869295999999999997 0.01 0.587359

Bonds 

1 1 1 2
2 1 1 3
3 1 4 5
4 1 4 6

Angles

1 1 2 1 3
2 1 5 4 6