LAMMPS data file via write_data, version 29 Sep 2021, timestep = 60060

6 atoms
2 atom types
4 bonds
1 bond types
2 angles
1 angle types

1.9070746996085468 29.127125300391853 xlo xhi
1.9070746996085468 29.127125300391853 ylo yhi
1.9070746996085468 29.127125300391853 zlo zhi

Masses

1 15.9994
2 1.008

Pair Coeffs # lj/charmm/coul/long

1 0.1553 3.166 0.1553 3.166
2 0 0 0 0

Bond Coeffs # harmonic

1 600 1

Angle Coeffs # harmonic

1 75 109.47

Atoms # full

1 1 1 -0.8476 4.542019519542819 2.1551891525393843 3.0953205561488937 0 0 0
2 1 2 0.4238 4.256391253074714 2.670423166325631 3.9033877887001607 0 0 0
3 1 2 0.4238 5.502754368040753 29.114014805161236 3.18898152968115 0 -1 0
6 2 2 0.4238 2.7023136141699893 2.2021514364496677 27.517898413367757 0 0 -1
4 2 1 -0.8476 2.554502447691599 28.804778691601047 28.290531942806822 0 -1 -1
5 2 2 0.4238 3.3075979636767037 28.899392848644773 28.94162144799832 0 -1 -1

Velocities

1 0.004880287285498428 -0.002078979720657396 -0.0034266151210883915
2 0.0134986463836061 0.00514055237682878 -0.004983541921946519
3 0.005296497362810771 -0.0030466469116513877 -0.010394793144031578
6 -0.0037309402210834544 0.003036527174195077 0.005100079320115748
4 -0.005720760032397233 0.002174689157514675 0.004030702354759935
5 -0.0017238665543205483 -0.006649573079907852 0.0006899290728385859

Bonds

1 1 1 2
2 1 1 3
3 1 4 5
4 1 4 6

Angles

1 1 2 1 3
2 1 5 4 6
