ITEM: TIMESTEP
66
ITEM: NUMBER OF ATOMS
6
ITEM: BOX BOUNDS pp pp pp
4.8140860018364151e-05 3.1034151859139982e+01
4.8140860018364151e-05 3.1034151859139982e+01
4.8140860018364151e-05 3.1034151859139982e+01
ITEM: ATOMS id mol type x y z ix iy iz
5 2 2 3.78985 0.0515526 0.757261 0 0 0
6 2 2 2.31849 -0.00246854 0.0510142 0 0 0
1 1 1 0.630513 31.0093 0.500488 0 -1 0
2 1 2 0.150183 30.9826 1.37717 0 -1 0
3 1 2 30.999 0.0489368 30.792 -1 0 -1
4 2 1 3.30455 31.0302 30.9188 0 -1 -1
ITEM: TIMESTEP
88
ITEM: NUMBER OF ATOMS
6
ITEM: BOX BOUNDS pp pp pp
8.8402060771919366e-04 3.1033315979392277e+01
8.8402060771919366e-04 3.1033315979392277e+01
8.8402060771919366e-04 3.1033315979392277e+01
ITEM: ATOMS id mol type x y z ix iy iz
5 2 2 3.80448 0.0466034 0.746451 0 0 0
6 2 2 2.32041 -0.0433929 0.0711418 0 0 0
1 1 1 0.633991 31.0127 0.50735 0 -1 0
2 1 2 0.0944335 30.958 1.34752 0 -1 0
3 1 2 31.0525 0.0282813 30.7519 -1 0 -1
4 2 1 3.30172 31.031 30.9158 0 -1 -1
ITEM: TIMESTEP
110
ITEM: NUMBER OF ATOMS
6
ITEM: BOX BOUNDS pp pp pp
2.5291115499577188e-03 3.1031670888450037e+01
2.5291115499577188e-03 3.1031670888450037e+01
2.5291115499577188e-03 3.1031670888450037e+01
ITEM: ATOMS id mol type x y z ix iy iz
5 2 2 3.83884 0.0542148 0.719454 0 0 0
6 2 2 2.32366 0.0220347 0.111364 0 0 0
1 1 1 0.639152 31.0126 0.520448 0 -1 0
2 1 2 -0.00604299 30.9307 1.28006 0 -1 0
3 1 2 31.1646 0.0137355 30.6862 -1 0 -1
4 2 1 3.29649 31.026 30.9104 0 -1 -1
ITEM: TIMESTEP
132
ITEM: NUMBER OF ATOMS
6
ITEM: BOX BOUNDS pp pp pp
4.6483310608742556e-03 3.1029551668939117e+01
4.6483310608742556e-03 3.1029551668939117e+01
4.6483310608742556e-03 3.1029551668939117e+01
ITEM: ATOMS id mol type x y z ix iy iz
5 2 2 3.88243 0.0576933 0.683631 0 0 0
6 2 2 2.33484 -0.0288956 0.169768 0 0 0
1 1 1 0.642644 31.0159 0.534592 0 -1 0
2 1 2 -0.101396 30.8964 1.19195 0 -1 0
3 1 2 31.2957 -0.0106254 30.6312 -1 0 -1
4 2 1 3.29122 31.0254 30.9041 0 -1 -1
ITEM: TIMESTEP
154
ITEM: NUMBER OF ATOMS
6
ITEM: BOX BOUNDS pp pp pp
6.9802110978081089e-03 3.1027219788902187e+01
6.9802110978081089e-03 3.1027219788902187e+01
6.9802110978081089e-03 3.1027219788902187e+01
ITEM: ATOMS id mol type x y z ix iy iz
5 2 2 3.91423 0.0822968 0.654909 0 0 0
6 2 2 2.34513 0.0271942 0.206037 0 0 0
1 1 1 0.644029 31.0112 0.545922 0 -1 0
2 1 2 -0.166519 30.8953 1.12 0 -1 0
3 1 2 31.3917 0.00807717 30.6042 -1 0 -1
4 2 1 3.28954 31.0196 30.8987 0 -1 -1
ITEM: TIMESTEP
176
ITEM: NUMBER OF ATOMS
6
ITEM: BOX BOUNDS pp pp pp
9.4991868647227307e-03 3.1024700813135276e+01
9.4991868647227307e-03 3.1024700813135276e+01
9.4991868647227307e-03 3.1024700813135276e+01
ITEM: ATOMS id mol type x y z ix iy iz
5 2 2 3.92574 0.105548 0.647079 0 0 0
6 2 2 2.35431 -0.0276237 0.223457 0 0 0
1 1 1 0.644019 31.0081 0.55049 0 -1 0
2 1 2 -0.179908 30.9049 1.10768 0 -1 0
3 1 2 31.4058 0.0260913 30.5989 -1 0 -1
4 2 1 3.29285 31.0182 30.8949 0 -1 -1
ITEM: TIMESTEP
198
ITEM: NUMBER OF ATOMS
6
ITEM: BOX BOUNDS pp pp pp
1.2443751036846251e-02 3.1021756248963143e+01
1.2443751036846251e-02 3.1021756248963143e+01
1.2443751036846251e-02 3.1021756248963143e+01
ITEM: ATOMS id mol type x y z ix iy iz
5 2 2 3.90356 0.138408 0.670626 0 0 0
6 2 2 2.3499 -0.0148679 0.191859 0 0 0
1 1 1 0.645015 31.0006 0.548338 0 -1 0
2 1 2 -0.139251 30.9296 1.16467 0 -1 0
3 1 2 31.3311 0.0688738 30.6145 -1 0 -1
4 2 1 3.30112 31.013 30.8932 0 -1 -1
ITEM: TIMESTEP
220
ITEM: NUMBER OF ATOMS
6
ITEM: BOX BOUNDS pp pp pp
1.6148433627835246e-02 3.1018051566372161e+01
1.6148433627835246e-02 3.1018051566372161e+01
1.6148433627835246e-02 3.1018051566372161e+01
ITEM: ATOMS id mol type x y z ix iy iz
5 2 2 3.85878 0.164575 0.713031 0 0 0
6 2 2 2.34164 -0.0205834 0.138084 0 0 0
1 1 1 0.648197 30.9952 0.539102 0 -1 0
2 1 2 -0.0310715 30.9372 1.27068 0 -1 0
3 1 2 31.1851 0.100076 30.6621 -1 0 -1
4 2 1 3.3105 31.0078 30.8939 0 -1 -1
ITEM: TIMESTEP
242
ITEM: NUMBER OF ATOMS
6
ITEM: BOX BOUNDS pp pp pp
2.0607225581514399e-02 3.1013592774418484e+01
2.0607225581514399e-02 3.1013592774418484e+01
2.0607225581514399e-02 3.1013592774418484e+01
ITEM: ATOMS id mol type x y z ix iy iz
5 2 2 3.81093 0.182914 0.755196 0 0 0
6 2 2 2.33675 -0.0362492 0.0878807 0 0 0
1 1 1 0.652439 30.9946 0.526871 0 -1 0
2 1 2 0.123364 30.9095 1.37115 0 -1 0
3 1 2 31.0219 0.0980854 30.7441 -1 0 -1
4 2 1 3.31837 31.0018 30.8955 0 -1 -1
ITEM: TIMESTEP
264
ITEM: NUMBER OF ATOMS
6
ITEM: BOX BOUNDS pp pp pp
2.5438255736311532e-02 3.1008761744263680e+01
2.5438255736311532e-02 3.1008761744263680e+01
2.5438255736311532e-02 3.1008761744263680e+01
ITEM: ATOMS id mol type x y z ix iy iz
5 2 2 3.78436 0.213089 0.776949 0 0 0
6 2 2 2.33432 0.0293565 0.0488044 0 0 0
1 1 1 0.655579 30.9951 0.519457 0 -1 0
2 1 2 0.254342 30.8513 1.42405 0 -1 0
3 1 2 30.9098 0.0802256 30.8218 -1 0 -1
4 2 1 3.32479 30.9909 30.8962 0 -1 -1
ITEM: TIMESTEP
286
ITEM: NUMBER OF ATOMS
6
ITEM: BOX BOUNDS pp pp pp
3.0372741828632144e-02 3.1003827258171356e+01
3.0372741828632144e-02 3.1003827258171356e+01
3.0372741828632144e-02 3.1003827258171356e+01
ITEM: ATOMS id mol type x y z ix iy iz
5 2 2 3.78582 0.261104 0.772602 0 0 0
6 2 2 2.34153 -0.0186271 0.0638436 0 0 0
1 1 1 0.657258 31.0024 0.522816 0 -1 0
2 1 2 0.301284 30.7488 1.42224 0 -1 0
3 1 2 30.8815 0.0464379 30.8341 -1 0 -1
4 2 1 3.3305 30.983 30.892 0 -1 -1
ITEM: TIMESTEP
308
ITEM: NUMBER OF ATOMS
6
ITEM: BOX BOUNDS pp pp pp
3.5598648646326225e-02 3.0998601351353649e+01
3.5598648646326225e-02 3.0998601351353649e+01
3.5598648646326225e-02 3.0998601351353649e+01
ITEM: ATOMS id mol type x y z ix iy iz
5 2 2 3.81537 0.374514 0.717648 0 0 0
6 2 2 2.34764 0.0642829 0.0726062 0 0 0
1 1 1 0.660846 31.0013 0.539783 0 -1 0
2 1 2 0.229413 30.6497 1.37056 0 -1 0
3 1 2 30.9501 0.0683757 30.7644 -1 0 -1
4 2 1 3.33453 30.9668 30.8861 0 -1 -1
ITEM: TIMESTEP
330
ITEM: NUMBER OF ATOMS
6
ITEM: BOX BOUNDS pp pp pp
4.1491322901601180e-02 3.0992708677098378e+01
4.1491322901601180e-02 3.0992708677098378e+01
4.1491322901601180e-02 3.0992708677098378e+01
ITEM: ATOMS id mol type x y z ix iy iz
5 2 2 3.84753 0.520645 0.611969 0 0 0
6 2 2 2.37073 -0.0313899 0.186732 0 0 0
1 1 1 0.666286 31.0005 0.561709 0 -1 0
2 1 2 0.113394 30.5527 1.26438 0 -1 0
3 1 2 31.0846 0.129902 30.6706 -1 0 -1
4 2 1 3.33533 30.9557 30.8768 0 -1 -1
ITEM: TIMESTEP
352
ITEM: NUMBER OF ATOMS
6
ITEM: BOX BOUNDS pp pp pp
4.8213856387480547e-02 3.0985986143612493e+01
4.8213856387480547e-02 3.0985986143612493e+01
4.8213856387480547e-02 3.0985986143612493e+01
ITEM: ATOMS id mol type x y z ix iy iz
5 2 2 3.83766 0.690134 0.457018 0 0 0
6 2 2 2.37584 0.00289195 0.21761 0 0 0
1 1 1 0.677114 30.9872 0.585307 0 -1 0
2 1 2 -0.0146839 30.5111 1.12812 0 -1 0
3 1 2 31.2436 0.257128 30.6181 -1 0 -1
4 2 1 3.33527 30.9381 30.8735 0 -1 -1
ITEM: TIMESTEP
374
ITEM: NUMBER OF ATOMS
6
ITEM: BOX BOUNDS pp pp pp
5.5217492713714122e-02 3.0978982507286272e+01
5.5217492713714122e-02 3.0978982507286272e+01
5.5217492713714122e-02 3.0978982507286272e+01
ITEM: ATOMS id mol type x y z ix iy iz
5 2 2 3.7832 0.812291 0.325937 0 0 0
6 2 2 2.41351 -0.0767786 0.323119 0 0 0
1 1 1 0.689121 30.9767 0.596064 0 -1 0
2 1 2 -0.0579228 30.4897 1.04845 0 -1 0
3 1 2 31.3047 0.380226 30.6266 -1 0 -1
4 2 1 3.33613 30.9264 30.8695 0 -1 -1
ITEM: TIMESTEP
396
ITEM: NUMBER OF ATOMS
6
ITEM: BOX BOUNDS pp pp pp
6.1443064628246447e-02 3.0972756935371727e+01
6.1443064628246447e-02 3.0972756935371727e+01
6.1443064628246447e-02 3.0972756935371727e+01
ITEM: ATOMS id mol type x y z ix iy iz
5 2 2 3.70234 0.884509 0.270286 0 0 0
6 2 2 2.39404 30.8191 0.24115 0 -1 0
1 1 1 0.695767 30.9714 0.601365 0 -1 0
2 1 2 30.8802 30.4557 1.05488 -1 -1 0
3 1 2 0.34311 0.459143 30.6663 0 0 -1
4 2 1 3.34879 30.9137 30.8706 0 -1 -1
ITEM: TIMESTEP
418
ITEM: NUMBER OF ATOMS
6
ITEM: BOX BOUNDS pp pp pp
6.7027316789564750e-02 3.0967172683210414e+01
6.7027316789564750e-02 3.0967172683210414e+01
6.7027316789564750e-02 3.0967172683210414e+01
ITEM: ATOMS id mol type x y z ix iy iz
5 2 2 3.73013 0.878266 0.284922 0 0 0
6 2 2 2.40083 30.8312 0.236579 0 -1 0
1 1 1 0.695459 30.9702 0.58748 0 -1 0
2 1 2 31.0131 30.4088 1.17522 -1 -1 0
3 1 2 0.137756 0.497589 30.7762 0 0 -1
4 2 1 3.3618 30.9038 30.8698 0 -1 -1
ITEM: TIMESTEP
440
ITEM: NUMBER OF ATOMS
6
ITEM: BOX BOUNDS pp pp pp
7.2823405226808191e-02 3.0961376594773178e+01
7.2823405226808191e-02 3.0961376594773178e+01
7.2823405226808191e-02 3.0961376594773178e+01
ITEM: ATOMS id mol type x y z ix iy iz
5 2 2 3.79424 0.835423 0.345023 0 0 0
6 2 2 2.38872 30.9171 0.145144 0 -1 0
1 1 1 0.688776 30.9745 0.568453 0 -1 0
2 1 2 31.2616 30.3657 1.29617 -1 -1 0
3 1 2 -0.0997236 0.448833 30.9605 0 0 -1
4 2 1 3.37522 30.8911 30.8721 0 -1 -1
ITEM: TIMESTEP
462
ITEM: NUMBER OF ATOMS
6
ITEM: BOX BOUNDS pp pp pp
7.9758901677825733e-02 3.0954441098322171e+01
7.9758901677825733e-02 3.0954441098322171e+01
7.9758901677825733e-02 3.0954441098322171e+01
ITEM: ATOMS id mol type x y z ix iy iz
5 2 2 3.78312 0.816101 0.420013 0 0 0
6 2 2 2.38932 30.923 0.0534171 0 -1 0
1 1 1 0.682461 30.9884 0.557364 0 -1 0
2 1 2 31.553 30.3207 1.30174 -1 -1 0
3 1 2 -0.258128 0.30955 31.1547 0 0 -1
4 2 1 3.38662 30.8757 30.8723 0 -1 -1
ITEM: TIMESTEP
484
ITEM: NUMBER OF ATOMS
6
ITEM: BOX BOUNDS pp pp pp
8.8114255196215296e-02 3.0946085744803785e+01
8.8114255196215296e-02 3.0946085744803785e+01
8.8114255196215296e-02 3.0946085744803785e+01
ITEM: ATOMS id mol type x y z ix iy iz
5 2 2 3.7989 0.825052 0.406182 0 0 0
6 2 2 2.39137 30.949 30.8813 0 -1 -1
1 1 1 0.687137 0.137126 0.558014 0 0 0
2 1 2 0.878306 30.2753 1.22527 0 -1 0
3 1 2 30.5583 0.200215 0.409303 -1 0 0
4 2 1 3.38733 30.8599 30.873 0 -1 -1
ITEM: TIMESTEP
506
ITEM: NUMBER OF ATOMS
6
ITEM: BOX BOUNDS pp pp pp
9.7031379045386501e-02 3.0937168620954616e+01
9.7031379045386501e-02 3.0937168620954616e+01
9.7031379045386501e-02 3.0937168620954616e+01
ITEM: ATOMS id mol type x y z ix iy iz
5 2 2 3.88792 0.841049 0.251666 0 0 0
6 2 2 2.39816 31.0431 30.8919 0 -1 -1
1 1 1 0.704774 0.146255 0.568551 0 0 0
2 1 2 0.898888 30.1999 1.15484 0 -1 0
3 1 2 30.5591 0.211295 0.413689 -1 0 0
4 2 1 3.37878 30.8479 30.8765 0 -1 -1
ITEM: TIMESTEP
528
ITEM: NUMBER OF ATOMS
6
ITEM: BOX BOUNDS pp pp pp
1.0504609134486742e-01 3.0929153908655135e+01
1.0504609134486742e-01 3.0929153908655135e+01
1.0504609134486742e-01 3.0929153908655135e+01
ITEM: ATOMS id mol type x y z ix iy iz
5 2 2 3.85988 0.895663 0.0154291 0 0 0
6 2 2 2.4142 30.9961 31.0692 0 -1 -1
1 1 1 0.720831 0.152044 0.586287 0 0 0
2 1 2 0.793825 30.0931 1.04979 0 -1 0
3 1 2 30.5915 0.31874 0.334933 -1 0 0
4 2 1 3.38286 30.8416 30.8748 0 -1 -1
ITEM: TIMESTEP
550
ITEM: NUMBER OF ATOMS
6
ITEM: BOX BOUNDS pp pp pp
1.1194880504260851e-01 3.0922251194957404e+01
1.1194880504260851e-01 3.0922251194957404e+01
1.1194880504260851e-01 3.0922251194957404e+01
ITEM: ATOMS id mol type x y z ix iy iz
5 2 2 3.73674 0.915882 -0.26141 0 0 0
6 2 2 2.41643 30.9044 31.0468 0 -1 -1
1 1 1 0.732128 0.14326 0.614439 0 0 0
2 1 2 0.531889 30.0275 0.934199 0 -1 0
3 1 2 30.7151 0.5473 0.224192 -1 0 0
4 2 1 3.40065 30.8446 30.8804 0 -1 -1
ITEM: TIMESTEP
572
ITEM: NUMBER OF ATOMS
6
ITEM: BOX BOUNDS pp pp pp
1.1817484234557085e-01 3.0916025157654428e+01
1.1817484234557085e-01 3.0916025157654428e+01
1.1817484234557085e-01 3.0916025157654428e+01
ITEM: ATOMS id mol type x y z ix iy iz
5 2 2 3.5677 0.882757 -0.463943 0 0 0
6 2 2 2.49088 30.8445 31.2327 0 -1 -1
1 1 1 0.733664 0.121692 0.620144 0 0 0
2 1 2 0.238549 30.1042 0.920176 0 -1 0
3 1 2 30.8822 0.793994 0.264726 -1 0 0
4 2 1 3.42453 30.8517 30.8746 0 -1 -1
ITEM: TIMESTEP
594
ITEM: NUMBER OF ATOMS
6
ITEM: BOX BOUNDS pp pp pp
1.2436486742313235e-01 3.0909835132576870e+01
1.2436486742313235e-01 3.0909835132576870e+01
1.2436486742313235e-01 3.0909835132576870e+01
ITEM: ATOMS id mol type x y z ix iy iz
5 2 2 3.4968 0.750755 30.1388 0 0 -1
6 2 2 2.49105 30.6956 0.327142 0 -1 0
1 1 1 0.726098 30.8898 0.619649 0 -1 0
2 1 2 0.0612995 30.2228 0.956013 0 -1 0
3 1 2 31.0518 0.975449 0.447312 -1 0 0
4 2 1 3.44847 30.8679 30.881 0 -1 -1
ITEM: TIMESTEP
616
ITEM: NUMBER OF ATOMS
6
ITEM: BOX BOUNDS pp pp pp
1.3174758008234200e-01 3.0902452419917672e+01
1.3174758008234200e-01 3.0902452419917672e+01
1.3174758008234200e-01 3.0902452419917672e+01
ITEM: ATOMS id mol type x y z ix iy iz
5 2 2 3.56172 0.504306 29.9707 0 0 -1
6 2 2 2.48749 30.8121 0.339441 0 -1 0
1 1 1 0.713278 30.8672 0.600767 0 -1 0
2 1 2 0.0584453 30.2589 1.04921 0 -1 0
3 1 2 31.2459 1.04721 0.799508 -1 0 0
4 2 1 3.459 30.8771 30.8824 0 -1 -1
ITEM: TIMESTEP
638
ITEM: NUMBER OF ATOMS
6
ITEM: BOX BOUNDS pp pp pp
1.4164182938765002e-01 3.0892558170612357e+01
1.4164182938765002e-01 3.0892558170612357e+01
1.4164182938765002e-01 3.0892558170612357e+01
ITEM: ATOMS id mol type x y z ix iy iz
5 2 2 3.6467 30.8214 29.9015 0 -1 -1
6 2 2 2.47087 30.7746 0.282692 0 -1 0
1 1 1 0.717075 30.8735 0.592409 0 -1 0
2 1 2 0.202908 30.1272 1.01517 0 -1 0
3 1 2 0.631801 0.945834 1.15353 0 0 0
4 2 1 3.45146 0.144539 30.8794 0 0 -1
ITEM: TIMESTEP
660
ITEM: NUMBER OF ATOMS
6
ITEM: BOX BOUNDS pp pp pp
1.5307967925578403e-01 3.0881120320744216e+01
1.5307967925578403e-01 3.0881120320744216e+01
1.5307967925578403e-01 3.0881120320744216e+01
ITEM: ATOMS id mol type x y z ix iy iz
5 2 2 3.7175 30.3623 30.0695 0 -1 -1
6 2 2 2.43293 30.965 0.149601 0 -1 0
1 1 1 0.752159 30.8742 0.608483 0 -1 0
2 1 2 0.267457 30.0291 0.833874 0 -1 0
3 1 2 0.663163 0.793513 1.36545 0 0 0
4 2 1 3.43083 0.175038 30.8603 0 0 -1
ITEM: TIMESTEP
682
ITEM: NUMBER OF ATOMS
6
ITEM: BOX BOUNDS pp pp pp
1.6237186880174015e-01 3.0871828131198271e+01
1.6237186880174015e-01 3.0871828131198271e+01
1.6237186880174015e-01 3.0871828131198271e+01
ITEM: ATOMS id mol type x y z ix iy iz
5 2 2 3.59009 30.0388 30.3649 0 -1 -1
6 2 2 2.45399 31.0232 0.293156 0 -1 0
1 1 1 0.784396 30.8665 0.628275 0 -1 0
2 1 2 0.19518 30.059 0.599407 0 -1 0
3 1 2 0.612063 0.665378 1.47196 0 0 0
4 2 1 3.4314 0.204576 30.8218 0 0 -1
ITEM: TIMESTEP
704
ITEM: NUMBER OF ATOMS
6
ITEM: BOX BOUNDS pp pp pp
1.6740344757320713e-01 3.0866796552426802e+01
1.6740344757320713e-01 3.0866796552426802e+01
1.6740344757320713e-01 3.0866796552426802e+01
ITEM: ATOMS id mol type x y z ix iy iz
5 2 2 3.6806 29.9523 30.6627 0 -1 -1
6 2 2 2.46818 0.301551 0.274519 0 0 0
1 1 1 0.793942 30.8415 0.676913 0 -1 0
2 1 2 0.0468695 30.3417 0.238677 0 -1 0
3 1 2 0.435676 0.668293 1.44814 0 0 0
4 2 1 3.44564 0.217726 30.7802 0 0 -1
ITEM: TIMESTEP
726
ITEM: NUMBER OF ATOMS
6
ITEM: BOX BOUNDS pp pp pp
1.7062566339679108e-01 3.0863574336603214e+01
1.7062566339679108e-01 3.0863574336603214e+01
1.7062566339679108e-01 3.0863574336603214e+01
ITEM: ATOMS id mol type x y z ix iy iz
5 2 2 3.87653 30.0361 0.28666 0 -1 0
6 2 2 2.49441 0.212748 0.273372 0 0 0
1 1 1 0.757368 30.8005 0.727452 0 -1 0
2 1 2 30.8826 30.841 30.5982 -1 -1 -1
3 1 2 0.413397 0.760269 1.40249 0 0 0
4 2 1 3.46699 0.221783 30.734 0 0 -1
ITEM: TIMESTEP
748
ITEM: NUMBER OF ATOMS
6
ITEM: BOX BOUNDS pp pp pp
1.7658122888562922e-01 3.0857618771114375e+01
1.7658122888562922e-01 3.0857618771114375e+01
1.7658122888562922e-01 3.0857618771114375e+01
ITEM: ATOMS id mol type x y z ix iy iz
5 2 2 4.1511 30.3784 0.532726 0 -1 0
6 2 2 2.56309 0.0588143 0.414038 0 0 0
1 1 1 0.728533 30.785 0.744017 0 -1 0
2 1 2 31.1714 31.1831 30.5392 -1 -1 -1
3 1 2 0.42193 0.712207 1.47611 0 0 0
4 2 1 3.46646 0.206969 30.6927 0 0 -1
ITEM: TIMESTEP
770
ITEM: NUMBER OF ATOMS
6
ITEM: BOX BOUNDS pp pp pp
1.8626213782027357e-01 3.0847937862179727e+01
1.8626213782027357e-01 3.0847937862179727e+01
1.8626213782027357e-01 3.0847937862179727e+01
ITEM: ATOMS id mol type x y z ix iy iz
5 2 2 4.13832 30.7258 0.72623 0 -1 0
6 2 2 2.58736 -0.200581 0.289303 0 0 0
1 1 1 0.753968 30.7907 0.763245 0 -1 0
2 1 2 31.3696 31.3637 30.6067 -1 -1 -1
3 1 2 0.196376 0.535797 1.48682 0 0 0
4 2 1 3.45991 0.195472 30.6651 0 0 -1
ITEM: TIMESTEP
792
ITEM: NUMBER OF ATOMS
6
ITEM: BOX BOUNDS pp pp pp
1.9766756126638185e-01 3.0836532438733620e+01
1.9766756126638185e-01 3.0836532438733620e+01
1.9766756126638185e-01 3.0836532438733620e+01
ITEM: ATOMS id mol type x y z ix iy iz
5 2 2 4.00272 31.0389 0.80459 0 -1 0
6 2 2 2.50016 30.6782 0.276664 0 -1 0
1 1 1 0.806066 30.7989 0.785631 0 -1 0
2 1 2 0.792749 0.889636 30.7408 0 0 -1
3 1 2 30.6006 0.189118 1.32059 -1 0 0
4 2 1 3.45379 30.8028 30.6417 0 -1 -1
ITEM: TIMESTEP
814
ITEM: NUMBER OF ATOMS
6
ITEM: BOX BOUNDS pp pp pp
2.0880627933938634e-01 3.0825393720660614e+01
2.0880627933938634e-01 3.0825393720660614e+01
2.0880627933938634e-01 3.0825393720660614e+01
ITEM: ATOMS id mol type x y z ix iy iz
5 2 2 3.98092 0.604551 0.716253 0 0 0
6 2 2 2.51365 30.591 0.374834 0 -1 0
1 1 1 0.856526 0.230534 0.806965 0 0 0
2 1 2 0.52789 0.983989 0.237537 0 0 0
3 1 2 30.7272 30.2009 0.967673 -1 -1 0
4 2 1 3.43315 30.7584 30.6358 0 -1 -1
ITEM: TIMESTEP
836
ITEM: NUMBER OF ATOMS
6
ITEM: BOX BOUNDS pp pp pp
2.1596740444782725e-01 3.0818232595552168e+01
2.1596740444782725e-01 3.0818232595552168e+01
2.1596740444782725e-01 3.0818232595552168e+01
ITEM: ATOMS id mol type x y z ix iy iz
5 2 2 4.02602 0.726477 0.552169 0 0 0
6 2 2 2.48014 30.8705 0.293686 0 -1 0
1 1 1 0.859252 0.278953 0.828032 0 0 0
2 1 2 0.1471 0.893317 0.488375 0 0 0
3 1 2 31.2569 29.9445 0.544068 -1 -1 0
4 2 1 3.43353 30.7066 30.6427 0 -1 -1
ITEM: TIMESTEP
858
ITEM: NUMBER OF ATOMS
6
ITEM: BOX BOUNDS pp pp pp
2.1938251251081375e-01 3.0814817487489169e+01
2.1938251251081375e-01 3.0814817487489169e+01
2.1938251251081375e-01 3.0814817487489169e+01
ITEM: ATOMS id mol type x y z ix iy iz
5 2 2 4.18445 0.703446 0.314785 0 0 0
6 2 2 2.59111 0.383775 0.474996 0 0 0
1 1 1 0.833624 0.324093 0.810077 0 0 0
2 1 2 30.4477 0.43711 0.965309 -1 0 0
3 1 2 0.99949 30.0503 0.344385 0 -1 0
4 2 1 3.44578 30.6782 30.6474 0 -1 -1
ITEM: TIMESTEP
880
ITEM: NUMBER OF ATOMS
6
ITEM: BOX BOUNDS pp pp pp
2.2161233858944307e-01 3.0812587661410539e+01
2.2161233858944307e-01 3.0812587661410539e+01
2.2161233858944307e-01 3.0812587661410539e+01
ITEM: ATOMS id mol type x y z ix iy iz
5 2 2 4.26512 0.672633 30.6608 0 0 -1
6 2 2 2.70892 0.50966 0.536989 0 0 0
1 1 1 0.777986 0.359187 0.792835 0 0 0
2 1 2 30.6872 30.5607 1.41204 -1 -1 0
3 1 2 1.09395 30.2445 30.7496 0 -1 -1
4 2 1 3.47199 30.6546 30.6603 0 -1 -1
ITEM: TIMESTEP
902
ITEM: NUMBER OF ATOMS
6
ITEM: BOX BOUNDS pp pp pp
2.2571523617154376e-01 3.0808484763828439e+01
2.2571523617154376e-01 3.0808484763828439e+01
2.2571523617154376e-01 3.0808484763828439e+01
ITEM: ATOMS id mol type x y z ix iy iz
5 2 2 4.26287 0.632747 30.4034 0 0 -1
6 2 2 2.74859 0.62662 0.431751 0 0 0
1 1 1 0.736565 0.375569 0.797504 0 0 0
2 1 2 31.1727 30.3108 1.54528 -1 -1 0
3 1 2 0.941674 30.4564 30.5401 0 -1 -1
4 2 1 3.49763 30.6357 30.6831 0 -1 -1
ITEM: TIMESTEP
924
ITEM: NUMBER OF ATOMS
6
ITEM: BOX BOUNDS pp pp pp
2.3250537784900693e-01 3.0801694622150965e+01
2.3250537784900693e-01 3.0801694622150965e+01
2.3250537784900693e-01 3.0801694622150965e+01
ITEM: ATOMS id mol type x y z ix iy iz
5 2 2 4.16605 0.671672 30.2527 0 0 -1
6 2 2 2.7624 0.581142 0.512995 0 0 0
1 1 1 0.73099 0.388896 0.801407 0 0 0
2 1 2 31.5996 30.2763 1.46884 -1 -1 0
3 1 2 0.598523 30.5189 30.482 0 -1 -1
4 2 1 3.51571 30.6211 30.6918 0 -1 -1
ITEM: TIMESTEP
946
ITEM: NUMBER OF ATOMS
6
ITEM: BOX BOUNDS pp pp pp
2.4197569539158259e-01 3.0792224304608389e+01
2.4197569539158259e-01 3.0792224304608389e+01
2.4197569539158259e-01 3.0792224304608389e+01
ITEM: ATOMS id mol type x y z ix iy iz
5 2 2 4.05639 0.714436 30.162 0 0 -1
6 2 2 2.60742 0.432599 0.309999 0 0 0
1 1 1 0.78181 0.39919 0.797558 0 0 0
2 1 2 1.12077 30.1816 1.34109 0 -1 0
3 1 2 0.104294 30.6192 30.6906 0 -1 -1
4 2 1 3.52569 30.6171 30.7088 0 -1 -1
ITEM: TIMESTEP
968
ITEM: NUMBER OF ATOMS
6
ITEM: BOX BOUNDS pp pp pp
2.5384655897620156e-01 3.0780353441023763e+01
2.5384655897620156e-01 3.0780353441023763e+01
2.5384655897620156e-01 3.0780353441023763e+01
ITEM: ATOMS id mol type x y z ix iy iz
5 2 2 3.96563 0.757791 30.1253 0 0 -1
6 2 2 2.52613 0.277165 30.728 0 0 -1
1 1 1 0.8502 0.365291 0.747139 0 0 0
2 1 2 1.05285 30.2058 1.44588 0 -1 0
3 1 2 30.4113 0.620245 0.800474 -1 0 0
4 2 1 3.50967 30.6233 30.7213 0 -1 -1
ITEM: TIMESTEP
990
ITEM: NUMBER OF ATOMS
6
ITEM: BOX BOUNDS pp pp pp
2.6416675584961702e-01 3.0770033244150341e+01
2.6416675584961702e-01 3.0770033244150341e+01
2.6416675584961702e-01 3.0770033244150341e+01
ITEM: ATOMS id mol type x y z ix iy iz
5 2 2 3.80591 0.819544 30.0749 0 0 -1
6 2 2 2.49982 30.6523 0.281435 0 -1 0
1 1 1 0.84405 0.323521 0.723394 0 0 0
2 1 2 1.17241 30.2522 1.47104 0 -1 0
3 1 2 0.563861 1.21206 1.08663 0 0 0
4 2 1 3.49759 30.6305 30.7245 0 -1 -1
ITEM: TIMESTEP
1012
ITEM: NUMBER OF ATOMS
6
ITEM: BOX BOUNDS pp pp pp
2.6987047500042038e-01 3.0764329524999532e+01
2.6987047500042038e-01 3.0764329524999532e+01
2.6987047500042038e-01 3.0764329524999532e+01
ITEM: ATOMS id mol type x y z ix iy iz
5 2 2 3.89624 0.66086 29.9561 0 0 -1
6 2 2 2.52459 30.4842 0.040234 0 -1 0
1 1 1 0.84226 0.31741 0.744318 0 0 0
2 1 2 0.765038 30.187 1.52122 0 -1 0
3 1 2 1.18309 1.20255 1.06109 0 0 0
4 2 1 3.49003 30.662 30.7252 0 -1 -1
ITEM: TIMESTEP
1034
ITEM: NUMBER OF ATOMS
6
ITEM: BOX BOUNDS pp pp pp
2.6984522417092904e-01 3.0764354775829027e+01
2.6984522417092904e-01 3.0764354775829027e+01
2.6984522417092904e-01 3.0764354775829027e+01
ITEM: ATOMS id mol type x y z ix iy iz
1 1 1 0.81835 0.308747 0.76196 0 0 0
3 1 2 1.48186 0.867619 1.25937 0 0 0
2 1 2 0.191078 30.3735 1.41146 0 -1 0
5 2 2 3.89988 0.287153 29.78 0 0 -1
6 2 2 2.54973 30.5075 30.6567 0 -1 -1
4 2 1 3.52942 30.702 30.7054 0 -1 -1
ITEM: TIMESTEP
1056
ITEM: NUMBER OF ATOMS
6
ITEM: BOX BOUNDS pp pp pp
2.6974312355329921e-01 3.0764456876446662e+01
2.6974312355329921e-01 3.0764456876446662e+01
2.6974312355329921e-01 3.0764456876446662e+01
ITEM: ATOMS id mol type x y z ix iy iz
1 1 1 0.81657 0.28276 0.808583 0 0 0
3 1 2 1.26236 0.614843 1.63984 0 0 0
2 1 2 30.3188 30.8276 0.919854 -1 -1 0
5 2 2 3.94034 30.3619 29.8149 0 -1 -1
6 2 2 2.57927 30.5646 30.6941 0 -1 -1
4 2 1 3.56354 30.7382 30.6613 0 -1 -1
ITEM: TIMESTEP
1078
ITEM: NUMBER OF ATOMS
6
ITEM: BOX BOUNDS pp pp pp
2.7290844615278687e-01 3.0761291553847162e+01
2.7290844615278687e-01 3.0761291553847162e+01
2.7290844615278687e-01 3.0761291553847162e+01
ITEM: ATOMS id mol type x y z ix iy iz
1 1 1 0.819587 0.250532 0.868227 0 0 0
3 1 2 0.743225 0.442348 1.84667 0 0 0
2 1 2 30.6266 31.2746 0.369396 -1 -1 0
5 2 2 3.76412 29.9981 29.9824 0 -1 -1
6 2 2 2.60343 30.8593 30.7424 0 -1 -1
4 2 1 3.58926 30.7571 30.6096 0 -1 -1
ITEM: TIMESTEP
1100
ITEM: NUMBER OF ATOMS
6
ITEM: BOX BOUNDS pp pp pp
2.8056623784559065e-01 3.0753633762154351e+01
2.8056623784559065e-01 3.0753633762154351e+01
2.8056623784559065e-01 3.0753633762154351e+01
ITEM: ATOMS id mol type x y z ix iy iz
1 1 1 0.855392 30.7329 0.913188 0 -1 0
3 1 2 0.13111 0.174561 1.59736 0 0 0
2 1 2 31.0886 0.979644 0.261834 -1 0 0
5 2 2 3.69943 29.8046 30.2958 0 -1 -1
6 2 2 2.81562 0.371001 0.719917 0 0 0
4 2 1 3.56776 30.7657 30.5387 0 -1 -1
ITEM: TIMESTEP
1122
ITEM: NUMBER OF ATOMS
6
ITEM: BOX BOUNDS pp pp pp
2.9010372053625844e-01 3.0744096279463680e+01
2.9010372053625844e-01 3.0744096279463680e+01
2.9010372053625844e-01 3.0744096279463680e+01
ITEM: ATOMS id mol type x y z ix iy iz
1 1 1 0.889965 30.7503 0.992847 0 -1 0
3 1 2 30.4233 30.3698 0.905931 -1 -1 0
2 1 2 1.05144 0.950279 30.7078 0 0 -1
5 2 2 3.88062 29.8185 30.4276 0 -1 -1
6 2 2 2.66802 0.291132 0.554471 0 0 0
4 2 1 3.53262 0.298673 30.5061 0 0 -1
ITEM: TIMESTEP
1144
ITEM: NUMBER OF ATOMS
6
ITEM: BOX BOUNDS pp pp pp
3.0022734876502888e-01 3.0733972651234900e+01
3.0022734876502888e-01 3.0733972651234900e+01
3.0022734876502888e-01 3.0733972651234900e+01
ITEM: ATOMS id mol type x y z ix iy iz
1 1 1 0.925628 30.7661 1.01325 0 -1 0
3 1 2 30.6695 30.1987 0.563632 -1 -1 0
2 1 2 1.09042 1.153 30.8999 0 0 -1
5 2 2 4.24222 30.085 30.5467 0 -1 -1
6 2 2 2.75078 -0.00157514 0.680005 0 0 0
4 2 1 3.4697 0.282595 30.4794 0 0 -1
ITEM: TIMESTEP
1166
ITEM: NUMBER OF ATOMS
6
ITEM: BOX BOUNDS pp pp pp
3.0550092881645341e-01 3.0728699071183463e+01
3.0550092881645341e-01 3.0728699071183463e+01
3.0550092881645341e-01 3.0728699071183463e+01
ITEM: ATOMS id mol type x y z ix iy iz
1 1 1 0.93617 0.339231 1.03274 0 0 0
3 1 2 0.428517 30.2687 0.326668 0 -1 0
2 1 2 1.006 1.3042 0.779864 0 0 0
5 2 2 4.33768 30.5086 0.463286 0 -1 0
6 2 2 2.71906 30.5505 0.675177 0 -1 0
4 2 1 3.45872 30.6607 30.4345 0 -1 -1
ITEM: TIMESTEP
1188
ITEM: NUMBER OF ATOMS
6
ITEM: BOX BOUNDS pp pp pp
3.0644710050283841e-01 3.0727752899497062e+01
3.0644710050283841e-01 3.0727752899497062e+01
3.0644710050283841e-01 3.0727752899497062e+01
ITEM: ATOMS id mol type x y z ix iy iz
1 1 1 0.935915 0.351053 1.05685 0 0 0
3 1 2 0.505365 30.3659 0.251006 0 -1 0
2 1 2 0.680251 1.31572 1.12046 0 0 0
5 2 2 4.05122 30.8362 0.789801 0 -1 0
6 2 2 2.53724 30.5957 0.2271 0 -1 0
4 2 1 3.50603 30.6185 30.4016 0 -1 -1
ITEM: TIMESTEP
1210
ITEM: NUMBER OF ATOMS
6
ITEM: BOX BOUNDS pp pp pp
3.0724406314734232e-01 3.0726955936852551e+01
3.0724406314734232e-01 3.0726955936852551e+01
3.0724406314734232e-01 3.0726955936852551e+01
ITEM: ATOMS id mol type x y z ix iy iz
1 1 1 0.932389 0.412282 1.00654 0 0 0
3 1 2 0.316597 30.2072 0.526445 0 -1 0
2 1 2 0.445325 0.841289 1.76727 0 0 0
5 2 2 4.05019 0.576093 0.733855 0 0 0
6 2 2 2.57035 30.5244 30.6491 0 -1 -1
4 2 1 3.5358 30.5914 30.3973 0 -1 -1
ITEM: TIMESTEP
1232
ITEM: NUMBER OF ATOMS
6
ITEM: BOX BOUNDS pp pp pp
3.1004555753292884e-01 3.0724154442466968e+01
3.1004555753292884e-01 3.0724154442466968e+01
3.1004555753292884e-01 3.0724154442466968e+01
ITEM: ATOMS id mol type x y z ix iy iz
1 1 1 0.870365 0.458219 0.984161 0 0 0
3 1 2 0.439482 30.059 0.593241 0 -1 0
2 1 2 1.02272 0.317148 1.96235 0 0 0
5 2 2 4.27585 0.719037 0.358274 0 0 0
6 2 2 2.65641 0.527857 30.6862 0 0 -1
4 2 1 3.53959 30.5526 30.4248 0 -1 -1
ITEM: TIMESTEP
1254
ITEM: NUMBER OF ATOMS
6
ITEM: BOX BOUNDS pp pp pp
3.1639348003819379e-01 3.0717806519961705e+01
3.1639348003819379e-01 3.0717806519961705e+01
3.1639348003819379e-01 3.0717806519961705e+01
ITEM: ATOMS id mol type x y z ix iy iz
1 1 1 0.854774 0.47744 1.01153 0 0 0
3 1 2 0.543159 30.182 0.365602 0 -1 0
2 1 2 1.41384 0.0482299 1.72088 0 0 0
5 2 2 4.2434 0.786869 -0.204086 0 0 0
6 2 2 2.65223 0.594528 30.5099 0 0 -1
4 2 1 3.53884 30.5349 30.4741 0 -1 -1
ITEM: TIMESTEP
1276
ITEM: NUMBER OF ATOMS
6
ITEM: BOX BOUNDS pp pp pp
3.2498441717983262e-01 3.0709215582820089e+01
3.2498441717983262e-01 3.0709215582820089e+01
3.2498441717983262e-01 3.0709215582820089e+01
ITEM: ATOMS id mol type x y z ix iy iz
1 1 1 0.896713 0.481525 1.01333 0 0 0
3 1 2 0.33164 30.3505 30.7533 0 -1 -1
2 1 2 1.48668 30.2351 1.51753 0 -1 0
5 2 2 4.01238 0.569656 29.727 0 0 -1
6 2 2 2.64109 0.592948 30.6133 0 0 -1
4 2 1 3.53785 30.5475 30.5078 0 -1 -1
ITEM: TIMESTEP
1298
ITEM: NUMBER OF ATOMS
6
ITEM: BOX BOUNDS pp pp pp
3.3354820486499470e-01 3.0700651795134931e+01
3.3354820486499470e-01 3.0700651795134931e+01
3.3354820486499470e-01 3.0700651795134931e+01
ITEM: ATOMS id mol type x y z ix iy iz
1 1 1 0.962813 0.460979 0.968527 0 0 0
3 1 2 -0.0144819 30.6817 31.1826 0 -1 -1
2 1 2 1.32809 30.0829 1.52638 0 -1 0
5 2 2 3.63757 0.334491 29.5353 0 0 -1
6 2 2 2.73077 0.690418 30.8459 0 0 -1
4 2 1 3.53841 30.5654 30.521 0 -1 -1
ITEM: TIMESTEP
1320
ITEM: NUMBER OF ATOMS
6
ITEM: BOX BOUNDS pp pp pp
3.3764478382005159e-01 3.0696555216179874e+01
3.3764478382005159e-01 3.0696555216179874e+01
3.3764478382005159e-01 3.0696555216179874e+01
ITEM: ATOMS id mol type x y z ix iy iz
1 1 1 0.966901 0.421811 0.939799 0 0 0
3 1 2 30.5609 0.965725 1.28475 -1 0 0
2 1 2 1.10008 29.9826 1.52736 0 -1 0
5 2 2 3.50641 30.3888 29.5433 0 -1 -1
6 2 2 2.63395 0.299081 0.538283 0 0 0
4 2 1 3.5575 30.6143 30.5162 0 -1 -1
ITEM: TIMESTEP
1342
ITEM: NUMBER OF ATOMS
6
ITEM: BOX BOUNDS pp pp pp
3.3834289333017509e-01 3.0695857106669745e+01
3.3834289333017509e-01 3.0695857106669745e+01
3.3834289333017509e-01 3.0695857106669745e+01
ITEM: ATOMS id mol type x y z ix iy iz
1 1 1 0.94002 0.367121 0.958931 0 0 0
3 1 2 0.985056 1.2693 1.38793 0 0 0
2 1 2 0.455915 30.0919 1.56336 0 -1 0
5 2 2 3.73024 30.1892 29.6267 0 -1 -1
6 2 2 2.58505 0.445455 0.258336 0 0 0
4 2 1 3.56598 30.6463 30.5008 0 -1 -1
ITEM: TIMESTEP
1364
ITEM: NUMBER OF ATOMS
6
ITEM: BOX BOUNDS pp pp pp
3.3870324789976713e-01 3.0695496752100162e+01
3.3870324789976713e-01 3.0695496752100162e+01
3.3870324789976713e-01 3.0695496752100162e+01
ITEM: ATOMS id mol type x y z ix iy iz
1 1 1 0.917483 0.34118 0.985704 0 0 0
3 1 2 1.47278 0.974974 1.52417 0 0 0
2 1 2 30.3573 30.6401 1.38046 -1 -1 0
5 2 2 3.97677 30.0364 29.8241 0 -1 -1
6 2 2 2.65339 30.38 0.360197 0 -1 0
4 2 1 3.56735 30.6925 30.4581 0 -1 -1
ITEM: TIMESTEP
1386
ITEM: NUMBER OF ATOMS
6
ITEM: BOX BOUNDS pp pp pp
3.4067178073081372e-01 3.0693528219269105e+01
3.4067178073081372e-01 3.0693528219269105e+01
3.4067178073081372e-01 3.0693528219269105e+01
ITEM: ATOMS id mol type x y z ix iy iz
1 1 1 0.901577 0.302618 1.04698 0 0 0
3 1 2 1.58317 0.80493 1.57905 0 0 0
2 1 2 30.4589 31.2401 0.887679 -1 -1 0
5 2 2 4.15827 29.9991 30.0445 0 -1 -1
6 2 2 2.61809 30.3825 0.0755868 0 -1 0
4 2 1 3.56433 30.7059 30.4287 0 -1 -1
ITEM: TIMESTEP
1408
ITEM: NUMBER OF ATOMS
6
ITEM: BOX BOUNDS pp pp pp
3.4487870000231347e-01 3.0689321299997601e+01
3.4487870000231347e-01 3.0689321299997601e+01
3.4487870000231347e-01 3.0689321299997601e+01
ITEM: ATOMS id mol type x y z ix iy iz
1 1 1 0.880558 30.6408 1.09602 0 -1 0
3 1 2 1.68255 0.59955 1.61066 0 0 0
2 1 2 30.9164 1.03353 0.494912 -1 0 0
5 2 2 4.14125 29.9151 30.2563 0 -1 -1
6 2 2 2.60861 30.4765 30.207 0 -1 -1
4 2 1 3.5597 0.370834 30.4029 0 0 -1
ITEM: TIMESTEP
1430
ITEM: NUMBER OF ATOMS
6
ITEM: BOX BOUNDS pp pp pp
3.5052716716023546e-01 3.0683672832839683e+01
3.5052716716023546e-01 3.0683672832839683e+01
3.5052716716023546e-01 3.0683672832839683e+01
ITEM: ATOMS id mol type x y z ix iy iz
1 1 1 0.893532 30.6426 1.09469 0 -1 0
3 1 2 1.63138 0.4081 1.76239 0 0 0
2 1 2 31.1017 1.17294 0.606077 -1 0 0
5 2 2 4.23588 30.0015 30.4783 0 -1 -1
6 2 2 2.63831 30.2872 30.2975 0 -1 -1
4 2 1 3.54088 0.378787 30.3677 0 0 -1
ITEM: TIMESTEP
1452
ITEM: NUMBER OF ATOMS
6