ITEM: TIMESTEP
0
ITEM: NUMBER OF ATOMS
6
ITEM: BOX BOUNDS pp pp pp
1.9070746996085468e+00 2.9127125300391853e+01
1.9070746996085468e+00 2.9127125300391853e+01
1.9070746996085468e+00 2.9127125300391853e+01
ITEM: ATOMS id mol type x y z ix iy iz
1 1 1 4.54202 2.15519 3.09532 0 0 0
2 1 2 4.25639 2.67042 3.90338 0 0 0
3 1 2 5.50274 29.114 3.18898 0 -1 0
6 2 2 2.70231 2.20214 27.5179 0 0 -1
4 2 1 2.5545 28.8048 28.2905 0 -1 -1
5 2 2 3.30759 28.8994 28.9416 0 -1 -1
ITEM: TIMESTEP
500
ITEM: NUMBER OF ATOMS
6
ITEM: BOX BOUNDS pp pp pp
1.9070746996085468e+00 2.9127125300391853e+01
1.9070746996085468e+00 2.9127125300391853e+01
1.9070746996085468e+00 2.9127125300391853e+01
ITEM: ATOMS id mol type x y z ix iy iz
1 1 1 3.30954 28.664 28.0699 0 -1 -1
2 1 2 3.28063 1.86643 27.164 0 0 -1
3 1 2 3.55791 27.6995 27.9802 0 -1 -1
6 2 2 3.05064 2.23186 3.91306 0 0 0
4 2 1 3.91592 2.40507 3.44264 0 0 0
5 2 2 3.83333 2.13597 2.48308 0 0 0
ITEM: TIMESTEP
1000
ITEM: NUMBER OF ATOMS
6
ITEM: BOX BOUNDS pp pp pp
1.9070746996085468e+00 2.9127125300391853e+01
1.9070746996085468e+00 2.9127125300391853e+01
1.9070746996085468e+00 2.9127125300391853e+01
ITEM: ATOMS id mol type x y z ix iy iz
1 1 1 3.06321 2.30829 3.26834 0 0 0
2 1 2 3.67184 2.47455 4.04417 0 0 0
3 1 2 2.2692 2.91285 3.33206 0 0 0
6 2 2 4.06427 27.712 27.9678 0 -1 -1
4 2 1 4.1572 28.7024 28.0701 0 -1 -1
5 2 2 3.79726 28.9808 28.9606 0 -1 -1
ITEM: TIMESTEP
1500
ITEM: NUMBER OF ATOMS
6
ITEM: BOX BOUNDS pp pp pp
1.9070746996085468e+00 2.9127125300391853e+01
1.9070746996085468e+00 2.9127125300391853e+01
1.9070746996085468e+00 2.9127125300391853e+01
ITEM: ATOMS id mol type x y z ix iy iz
1 1 1 4.71632 28.7728 28.711 0 -1 -1
2 1 2 4.60921 28.0363 28.0432 0 -1 -1
3 1 2 5.46702 2.15078 28.4302 0 0 -1
5 2 2 3.1853 1.88703 2.29023 0 0 0
6 2 2 2.60698 2.51879 3.68058 0 0 0
4 2 1 2.37394 2.25472 2.74465 0 0 0
ITEM: TIMESTEP
2000
ITEM: NUMBER OF ATOMS
6
ITEM: BOX BOUNDS pp pp pp
1.9070746996085468e+00 2.9127125300391853e+01
1.9070746996085468e+00 2.9127125300391853e+01
1.9070746996085468e+00 2.9127125300391853e+01
ITEM: ATOMS id mol type x y z ix iy iz
1 1 1 2.28738 29.2318 29.2825 0 -1 -1
2 1 2 29.1357 28.3304 29.5046 -1 -1 -1
3 1 2 28.8804 2.72007 29.6067 -1 0 -1
5 2 2 4.00412 1.96141 2.1377 0 0 0
6 2 2 5.40819 2.06141 28.53 0 0 -1
4 2 1 4.98434 1.76551 2.16595 0 0 0
ITEM: TIMESTEP
2500
ITEM: NUMBER OF ATOMS
6
ITEM: BOX BOUNDS pp pp pp
1.9070746996085468e+00 2.9127125300391853e+01
1.9070746996085468e+00 2.9127125300391853e+01
1.9070746996085468e+00 2.9127125300391853e+01
ITEM: ATOMS id mol type x y z ix iy iz
1 1 1 4.69658 2.06615 2.79649 0 0 0
3 1 2 5.35167 1.41503 2.41322 0 0 0
5 2 2 3.29491 29.062 29.0251 0 -1 -1
2 1 2 5.03923 2.40761 3.67171 0 0 0
6 2 2 1.89533 2.54477 28.5627 0 0 -1
4 2 1 2.41178 28.9087 28.5817 0 -1 -1
ITEM: TIMESTEP
3000
ITEM: NUMBER OF ATOMS
6
ITEM: BOX BOUNDS pp pp pp
1.9070746996085468e+00 2.9127125300391853e+01
1.9070746996085468e+00 2.9127125300391853e+01
1.9070746996085468e+00 2.9127125300391853e+01
ITEM: ATOMS id mol type x y z ix iy iz
1 1 1 2.99874 28.7462 28.1975 0 -1 -1
3 1 2 2.12292 29.0503 27.8226 0 -1 -1
5 2 2 3.85685 29.2796 2.42116 0 -1 0
2 1 2 3.4502 28.1415 27.5413 0 -1 -1
6 2 2 3.59392 2.71667 3.8928 0 0 0
4 2 1 4.27074 2.27155 3.30647 0 0 0
ITEM: TIMESTEP
3500
ITEM: NUMBER OF ATOMS
6
ITEM: BOX BOUNDS pp pp pp
1.9070746996085468e+00 2.9127125300391853e+01
1.9070746996085468e+00 2.9127125300391853e+01
1.9070746996085468e+00 2.9127125300391853e+01
ITEM: ATOMS id mol type x y z ix iy iz
5 2 2 3.86133 28.9675 28.9323 0 -1 -1
6 2 2 3.18346 27.9196 27.8792 0 -1 -1
4 2 1 3.78961 28.7099 27.9687 0 -1 -1
3 1 2 3.85318 2.20047 4.26535 0 0 0
1 1 1 3.441 2.29943 3.35964 0 0 0
2 1 2 2.74283 3.01482 3.38752 0 0 0
ITEM: TIMESTEP
4000
ITEM: NUMBER OF ATOMS
6
ITEM: BOX BOUNDS pp pp pp
1.9070746996085468e+00 2.9127125300391853e+01
1.9070746996085468e+00 2.9127125300391853e+01
1.9070746996085468e+00 2.9127125300391853e+01
ITEM: ATOMS id mol type x y z ix iy iz
5 2 2 3.41915 2.12852 2.46172 0 0 0
6 2 2 2.11393 3.04329 2.81701 0 0 0
4 2 1 2.68876 2.28577 3.12641 0 0 0
3 1 2 4.14338 28.3653 27.5192 0 -1 -1
1 1 1 4.45681 28.7404 28.3916 0 -1 -1
2 1 2 5.31397 28.2983 1.43579 0 -1 0
ITEM: TIMESTEP
4500
ITEM: NUMBER OF ATOMS
6
ITEM: BOX BOUNDS pp pp pp
1.9070746996085468e+00 2.9127125300391853e+01
1.9070746996085468e+00 2.9127125300391853e+01
1.9070746996085468e+00 2.9127125300391853e+01
ITEM: ATOMS id mol type x y z ix iy iz
5 2 2 4.04042 1.95624 2.03669 0 0 0
6 2 2 5.07274 28.0055 1.55683 0 -1 0
4 2 1 4.98389 28.9783 1.77084 0 -1 0
3 1 2 2.04749 2.58246 3.23302 0 0 0
1 1 1 2.30902 2.0624 2.41992 0 0 0
2 1 2 28.7112 29.0601 29.1092 -1 -1 -1
ITEM: TIMESTEP
5000
ITEM: NUMBER OF ATOMS
6
ITEM: BOX BOUNDS pp pp pp
1.9070746996085468e+00 2.9127125300391853e+01
1.9070746996085468e+00 2.9127125300391853e+01
1.9070746996085468e+00 2.9127125300391853e+01
ITEM: ATOMS id mol type x y z ix iy iz
5 2 2 3.18061 29.1299 29.1597 0 -1 -1
6 2 2 1.82589 2.74525 28.7943 0 0 -1
4 2 1 2.22524 29.052 28.8747 0 -1 -1
3 1 2 5.09033 28.4494 3.21025 0 -1 0
1 1 1 4.87271 1.93925 2.54042 0 0 0
2 1 2 5.64946 2.06447 1.92318 0 0 0
ITEM: TIMESTEP
5500
ITEM: NUMBER OF ATOMS
6
ITEM: BOX BOUNDS pp pp pp
1.9070746996085468e+00 2.9127125300391853e+01
1.9070746996085468e+00 2.9127125300391853e+01
1.9070746996085468e+00 2.9127125300391853e+01
ITEM: ATOMS id mol type x y z ix iy iz
5 2 2 3.84985 1.90313 2.53804 0 0 0
1 1 1 2.66306 28.7935 28.3615 0 -1 -1
3 1 2 2.37069 29.4305 27.6483 0 -1 -1
2 1 2 2.72325 27.871 27.9803 0 -1 -1
6 2 2 4.31566 3.04214 3.6115 0 0 0
4 2 1 4.59157 2.20677 3.13607 0 0 0
ITEM: TIMESTEP
6000
ITEM: NUMBER OF ATOMS
6
ITEM: BOX BOUNDS pp pp pp
1.9070746996085468e+00 2.9127125300391853e+01
1.9070746996085468e+00 2.9127125300391853e+01
1.9070746996085468e+00 2.9127125300391853e+01
ITEM: ATOMS id mol type x y z ix iy iz
5 2 2 3.56919 29.0371 28.873 0 -1 -1
1 1 1 3.69776 2.29725 3.40063 0 0 0
3 1 2 4.42625 29.1183 3.95746 0 -1 0
2 1 2 3.55409 3.24894 3.672 0 0 0
6 2 2 2.54296 28.6087 27.6772 0 -1 -1
4 2 1 3.50439 28.6686 27.9457 0 -1 -1
ITEM: TIMESTEP
6500
ITEM: NUMBER OF ATOMS
6
ITEM: BOX BOUNDS pp pp pp
1.9070746996085468e+00 2.9127125300391853e+01
1.9070746996085468e+00 2.9127125300391853e+01
1.9070746996085468e+00 2.9127125300391853e+01
ITEM: ATOMS id mol type x y z ix iy iz
1 1 1 4.24225 28.6223 28.2808 0 -1 -1
2 1 2 5.07721 28.0933 28.1292 0 -1 -1
3 1 2 3.96892 29.0657 27.4272 0 -1 -1
6 2 2 2.75221 28.8899 3.81837 0 -1 0
5 2 2 3.4436 2.18185 2.43041 0 0 0
4 2 1 2.88748 2.45577 3.21508 0 0 0
ITEM: TIMESTEP
7000
ITEM: NUMBER OF ATOMS
6
ITEM: BOX BOUNDS pp pp pp
1.9070746996085468e+00 2.9127125300391853e+01
1.9070746996085468e+00 2.9127125300391853e+01
1.9070746996085468e+00 2.9127125300391853e+01
ITEM: ATOMS id mol type x y z ix iy iz
1 1 1 2.39836 2.20782 2.62703 0 0 0
2 1 2 28.6907 2.34911 29.5016 -1 0 -1
3 1 2 29.58 28.9181 3.48651 -1 -1 0
6 2 2 5.46216 2.33491 28.6606 0 0 -1
5 2 2 3.93999 29.0779 1.78986 0 -1 0
4 2 1 4.85796 28.7651 1.54591 0 -1 0
ITEM: TIMESTEP
7500
ITEM: NUMBER OF ATOMS
6
ITEM: BOX BOUNDS pp pp pp
1.9070746996085468e+00 2.9127125300391853e+01
1.9070746996085468e+00 2.9127125300391853e+01
1.9070746996085468e+00 2.9127125300391853e+01
ITEM: ATOMS id mol type x y z ix iy iz
1 1 1 4.91088 1.81011 2.244 0 0 0
2 1 2 5.40973 2.49591 2.77393 0 0 0
3 1 2 5.54364 28.5583 1.63005 0 -1 0
6 2 2 28.9541 29.029 2.79233 -1 -1 0
5 2 2 3.16751 29.0826 2.01205 0 -1 0
4 2 1 2.18023 29.2091 29.1358 0 -1 -1
ITEM: TIMESTEP
8000
ITEM: NUMBER OF ATOMS
6
ITEM: BOX BOUNDS pp pp pp
1.9070746996085468e+00 2.9127125300391853e+01
1.9070746996085468e+00 2.9127125300391853e+01
1.9070746996085468e+00 2.9127125300391853e+01
ITEM: ATOMS id mol type x y z ix iy iz
1 1 1 2.52617 28.9812 28.5553 0 -1 -1
2 1 2 28.933 29.0432 29.134 -1 -1 -1
3 1 2 2.24953 28.9356 27.5954 0 -1 -1
6 2 2 5.31066 2.66189 2.46749 0 0 0
5 2 2 3.9165 29.0337 2.40854 0 -1 0
4 2 1 4.73286 2.00593 2.95315 0 0 0
ITEM: TIMESTEP
8500
ITEM: NUMBER OF ATOMS
6
ITEM: BOX BOUNDS pp pp pp
1.9070746996085468e+00 2.9127125300391853e+01
1.9070746996085468e+00 2.9127125300391853e+01
1.9070746996085468e+00 2.9127125300391853e+01
ITEM: ATOMS id mol type x y z ix iy iz
2 1 2 3.92471 3.25312 3.57492 0 0 0
5 2 2 3.42008 29.0013 28.9702 0 -1 -1
4 2 1 3.07019 28.7102 28.0798 0 -1 -1
1 1 1 4.06461 2.31729 3.25145 0 0 0
6 2 2 3.11371 27.7133 28.0142 0 -1 -1
3 1 2 4.70306 1.84618 3.86008 0 0 0
ITEM: TIMESTEP
9000
ITEM: NUMBER OF ATOMS
6
ITEM: BOX BOUNDS pp pp pp
1.9070746996085468e+00 2.9127125300391853e+01
1.9070746996085468e+00 2.9127125300391853e+01
1.9070746996085468e+00 2.9127125300391853e+01
ITEM: ATOMS id mol type x y z ix iy iz
2 1 2 4.57 27.9287 27.7977 0 -1 -1
5 2 2 3.40007 2.124 2.44935 0 0 0
4 2 1 3.10732 2.37529 3.37194 0 0 0
1 1 1 4.01757 28.6914 28.1339 0 -1 -1
6 2 2 3.71116 1.94401 4.04229 0 0 0
3 1 2 3.63751 29.1951 27.3581 0 -1 -1
ITEM: TIMESTEP
9500
ITEM: NUMBER OF ATOMS
6
ITEM: BOX BOUNDS pp pp pp
1.9070746996085468e+00 2.9127125300391853e+01
1.9070746996085468e+00 2.9127125300391853e+01
1.9070746996085468e+00 2.9127125300391853e+01
ITEM: ATOMS id mol type x y z ix iy iz
5 2 2 3.96214 28.9774 1.90356 0 -1 0
4 2 1 4.68421 28.7042 28.488 0 -1 -1
6 2 2 5.30253 28.0625 28.9419 0 -1 -1
3 1 2 29.0082 2.13141 3.49225 -1 0 0
2 1 2 2.28816 2.93365 2.1607 0 0 0
1 1 1 2.56529 2.30502 2.88734 0 0 0
ITEM: TIMESTEP
10000
ITEM: NUMBER OF ATOMS
6
ITEM: BOX BOUNDS pp pp pp
1.9070746996085468e+00 2.9127125300391853e+01
1.9070746996085468e+00 2.9127125300391853e+01
1.9070746996085468e+00 2.9127125300391853e+01
ITEM: ATOMS id mol type x y z ix iy iz
5 2 2 3.12459 1.92954 2.22165 0 0 0
4 2 1 2.13783 2.08629 2.26314 0 0 0
6 2 2 28.9026 28.7507 28.7875 -1 -1 -1
3 1 2 5.63447 1.55641 2.70306 0 0 0
2 1 2 5.40303 2.13651 28.4143 0 0 -1
1 1 1 4.95393 28.9551 1.99246 0 -1 0
ITEM: TIMESTEP
10500
ITEM: NUMBER OF ATOMS
6
ITEM: BOX BOUNDS pp pp pp
1.9070746996085468e+00 2.9127125300391853e+01
1.9070746996085468e+00 2.9127125300391853e+01
1.9070746996085468e+00 2.9127125300391853e+01
ITEM: ATOMS id mol type x y z ix iy iz
5 2 2 3.30601 28.9927 28.9667 0 -1 -1
4 2 1 3.0033 28.6863 28.0642 0 -1 -1
3 1 2 4.74296 2.98068 2.89149 0 0 0
1 1 1 4.11626 2.31288 3.2931 0 0 0
2 1 2 3.98797 2.51773 4.26345 0 0 0
6 2 2 3.36647 27.7723 27.8833 0 -1 -1
ITEM: TIMESTEP
11000
ITEM: NUMBER OF ATOMS
6
ITEM: BOX BOUNDS pp pp pp
1.9070746996085468e+00 2.9127125300391853e+01
1.9070746996085468e+00 2.9127125300391853e+01
1.9070746996085468e+00 2.9127125300391853e+01
ITEM: ATOMS id mol type x y z ix iy iz
5 2 2 3.87351 28.9175 1.80206 0 -1 0
4 2 1 4.62184 28.6254 28.4266 0 -1 -1
3 1 2 28.9251 2.36281 2.49159 -1 0 0
1 1 1 2.60831 2.333 2.91955 0 0 0
2 1 2 2.57285 2.7955 3.80546 0 0 0
6 2 2 5.49666 28.8353 1.64313 0 -1 0
ITEM: TIMESTEP
11500
ITEM: NUMBER OF ATOMS
6
ITEM: BOX BOUNDS pp pp pp
1.9070746996085468e+00 2.9127125300391853e+01
1.9070746996085468e+00 2.9127125300391853e+01
1.9070746996085468e+00 2.9127125300391853e+01
ITEM: ATOMS id mol type x y z ix iy iz
1 1 1 2.35323 29.0408 28.7282 0 -1 -1
2 1 2 1.97663 2.01172 27.8217 0 0 -1
3 1 2 28.8586 29.1584 2.19757 -1 -1 0
5 2 2 3.98402 29.0958 2.40084 0 -1 0
4 2 1 4.90659 1.9709 2.77474 0 0 0
6 2 2 5.57783 29.0196 2.05358 0 -1 0
ITEM: TIMESTEP
12000
ITEM: NUMBER OF ATOMS
6
ITEM: BOX BOUNDS pp pp pp
1.9070746996085468e+00 2.9127125300391853e+01
1.9070746996085468e+00 2.9127125300391853e+01
1.9070746996085468e+00 2.9127125300391853e+01
ITEM: ATOMS id mol type x y z ix iy iz
5 2 2 3.55302 1.95733 2.60103 0 0 0
4 2 1 3.4043 2.31581 3.52264 0 0 0
6 2 2 3.39754 3.31539 3.49441 0 0 0
1 1 1 3.76082 28.6987 28.0122 0 -1 -1
2 1 2 3.78173 27.699 27.9979 0 -1 -1
3 1 2 3.94802 29.0491 27.0945 0 -1 -1
ITEM: TIMESTEP
12500
ITEM: NUMBER OF ATOMS
6
ITEM: BOX BOUNDS pp pp pp
1.9070746996085468e+00 2.9127125300391853e+01
1.9070746996085468e+00 2.9127125300391853e+01
1.9070746996085468e+00 2.9127125300391853e+01
ITEM: ATOMS id mol type x y z ix iy iz
5 2 2 3.21392 1.89584 2.37626 0 0 0
4 2 1 2.26385 2.10956 2.6036 0 0 0
6 2 2 29.087 2.67438 29.1002 -1 0 -1
1 1 1 4.82721 28.9003 28.8811 0 -1 -1
2 1 2 5.5322 2.19028 28.3883 0 0 -1
3 1 2 5.2428 28.1139 2.11807 0 -1 0
ITEM: TIMESTEP
13000
ITEM: NUMBER OF ATOMS
6
ITEM: BOX BOUNDS pp pp pp
1.9070746996085468e+00 2.9127125300391853e+01
1.9070746996085468e+00 2.9127125300391853e+01
1.9070746996085468e+00 2.9127125300391853e+01
ITEM: ATOMS id mol type x y z ix iy iz
5 2 2 3.29777 29.0017 29.0139 0 -1 -1
4 2 1 2.6816 28.8363 28.2439 0 -1 -1
6 2 2 3.04512 28.0952 27.6793 0 -1 -1
1 1 1 4.42337 2.17451 3.12623 0 0 0
2 1 2 4.51933 29.0961 4.07583 0 -1 0
3 1 2 4.77281 3.10681 3.03291 0 0 0
ITEM: TIMESTEP
13500
ITEM: NUMBER OF ATOMS
6
ITEM: BOX BOUNDS pp pp pp
1.9070746996085468e+00 2.9127125300391853e+01
1.9070746996085468e+00 2.9127125300391853e+01
1.9070746996085468e+00 2.9127125300391853e+01
ITEM: ATOMS id mol type x y z ix iy iz
1 1 1 2.94254 2.33995 3.18965 0 0 0
3 1 2 29.1866 2.55343 3.23228 -1 0 0
2 1 2 3.42341 2.83223 3.91521 0 0 0
5 2 2 3.7545 29.0107 28.9197 0 -1 -1
4 2 1 4.2856 28.6689 28.1444 0 -1 -1
6 2 2 4.53547 27.7143 28.3066 0 -1 -1
ITEM: TIMESTEP
14000
ITEM: NUMBER OF ATOMS
6
ITEM: BOX BOUNDS pp pp pp
1.9070746996085468e+00 2.9127125300391853e+01
1.9070746996085468e+00 2.9127125300391853e+01
1.9070746996085468e+00 2.9127125300391853e+01
ITEM: ATOMS id mol type x y z ix iy iz
1 1 1 2.29357 29.135 29.0635 0 -1 -1
3 1 2 1.99285 2.81557 28.7498 0 0 -1
2 1 2 28.716 28.5505 29.2125 -1 -1 -1
5 2 2 3.99222 29.1198 2.29925 0 -1 0
4 2 1 4.98355 1.87937 2.42902 0 0 0
6 2 2 5.42155 28.7572 1.59772 0 -1 0
ITEM: TIMESTEP
14500
ITEM: NUMBER OF ATOMS
6
ITEM: BOX BOUNDS pp pp pp
1.9070746996085468e+00 2.9127125300391853e+01
1.9070746996085468e+00 2.9127125300391853e+01
1.9070746996085468e+00 2.9127125300391853e+01
ITEM: ATOMS id mol type x y z ix iy iz
1 1 1 3.47312 28.7374 28.0417 0 -1 -1
5 2 2 3.50364 1.96035 2.56812 0 0 0
4 2 1 3.6898 2.29784 3.49086 0 0 0
2 1 2 4.19256 28.1824 27.624 0 -1 -1
3 1 2 2.605 28.562 27.5773 0 -1 -1
6 2 2 4.41392 2.98653 3.45411 0 0 0
ITEM: TIMESTEP
15000
ITEM: NUMBER OF ATOMS
6
ITEM: BOX BOUNDS pp pp pp
1.9070746996085468e+00 2.9127125300391853e+01
1.9070746996085468e+00 2.9127125300391853e+01
1.9070746996085468e+00 2.9127125300391853e+01
ITEM: ATOMS id mol type x y z ix iy iz
1 1 1 4.76456 28.8537 28.6521 0 -1 -1
5 2 2 3.12742 29.1427 2.25777 0 -1 0
4 2 1 2.33238 2.14891 2.82055 0 0 0
2 1 2 5.41967 28.9482 27.9025 0 -1 -1
3 1 2 5.1362 28.2341 2.12338 0 -1 0
6 2 2 2.07906 3.10462 2.67073 0 0 0
ITEM: TIMESTEP
15500
ITEM: NUMBER OF ATOMS
6
ITEM: BOX BOUNDS pp pp pp
1.9070746996085468e+00 2.9127125300391853e+01
1.9070746996085468e+00 2.9127125300391853e+01
1.9070746996085468e+00 2.9127125300391853e+01
ITEM: ATOMS id mol type x y z ix iy iz
5 2 2 3.26831 29.0483 28.932 0 -1 -1
4 2 1 2.51375 28.8752 28.299 0 -1 -1
6 2 2 1.80648 28.3407 28.7617 0 -1 -1
3 1 2 5.6017 29.1443 3.01231 0 -1 0
1 1 1 4.62324 2.12961 3.03341 0 0 0
2 1 2 4.45024 2.86057 3.69353 0 0 0
ITEM: TIMESTEP
16000
ITEM: NUMBER OF ATOMS
6
ITEM: BOX BOUNDS pp pp pp
1.9070746996085468e+00 2.9127125300391853e+01
1.9070746996085468e+00 2.9127125300391853e+01
1.9070746996085468e+00 2.9127125300391853e+01
ITEM: ATOMS id mol type x y z ix iy iz
5 2 2 3.57518 28.9287 28.8562 0 -1 -1
4 2 1 3.8692 28.551 27.9782 0 -1 -1
6 2 2 4.72895 28.055 28.0998 0 -1 -1
3 1 2 4.0302 2.84313 3.87816 0 0 0
1 1 1 3.29187 2.43164 3.3438 0 0 0
2 1 2 2.41012 2.69964 3.73197 0 0 0
ITEM: TIMESTEP
16500
ITEM: NUMBER OF ATOMS
6
ITEM: BOX BOUNDS pp pp pp
1.9070746996085468e+00 2.9127125300391853e+01
1.9070746996085468e+00 2.9127125300391853e+01
1.9070746996085468e+00 2.9127125300391853e+01
ITEM: ATOMS id mol type x y z ix iy iz
3 1 2 28.9146 2.62203 2.65276 -1 0 0
1 1 1 2.27017 2.0557 2.06292 0 0 0
2 1 2 28.9212 28.6067 28.8049 -1 -1 -1
5 2 2 4.05383 2.00937 2.20346 0 0 0
4 2 1 5.02623 28.9991 2.16632 0 -1 0
6 2 2 5.14702 28.143 28.8838 0 -1 -1
ITEM: TIMESTEP
17000
ITEM: NUMBER OF ATOMS
6
ITEM: BOX BOUNDS pp pp pp
1.9070746996085468e+00 2.9127125300391853e+01
1.9070746996085468e+00 2.9127125300391853e+01
1.9070746996085468e+00 2.9127125300391853e+01
ITEM: ATOMS id mol type x y z ix iy iz
3 1 2 2.5859 28.0118 27.7146 0 -1 -1
1 1 1 2.89286 28.7927 28.2586 0 -1 -1
2 1 2 2.52721 2.41662 27.866 0 0 -1
5 2 2 3.9249 2.0235 2.37 0 0 0
4 2 1 4.38245 2.25436 3.22869 0 0 0
6 2 2 3.89337 29.051 3.99128 0 -1 0
ITEM: TIMESTEP
17500
ITEM: NUMBER OF ATOMS
6
ITEM: BOX BOUNDS pp pp pp
1.9070746996085468e+00 2.9127125300391853e+01
1.9070746996085468e+00 2.9127125300391853e+01
1.9070746996085468e+00 2.9127125300391853e+01
ITEM: ATOMS id mol type x y z ix iy iz
4 2 1 2.72455 2.31361 3.15263 0 0 0
6 2 2 2.99935 3.25108 3.36622 0 0 0
5 2 2 3.36129 29.1429 2.48789 0 -1 0
2 1 2 5.19888 28.135 28.1613 0 -1 -1
3 1 2 3.74183 28.6222 27.6079 0 -1 -1
1 1 1 4.40144 28.7065 28.3547 0 -1 -1
ITEM: TIMESTEP
18000
ITEM: NUMBER OF ATOMS
6
ITEM: BOX BOUNDS pp pp pp
1.9070746996085468e+00 2.9127125300391853e+01
1.9070746996085468e+00 2.9127125300391853e+01
1.9070746996085468e+00 2.9127125300391853e+01
ITEM: ATOMS id mol type x y z ix iy iz
4 2 1 2.18561 29.0732 28.9065 0 -1 -1
6 2 2 28.7847 2.25911 2.35689 -1 0 0
5 2 2 3.12964 29.1818 29.2179 0 -1 -1
2 1 2 5.31554 28.3008 2.82389 0 -1 0
3 1 2 5.55101 2.35294 1.82756 0 0 0
1 1 1 4.92404 1.93665 2.48605 0 0 0
ITEM: TIMESTEP
18500
ITEM: NUMBER OF ATOMS
6
ITEM: BOX BOUNDS pp pp pp
1.9070746996085468e+00 2.9127125300391853e+01
1.9070746996085468e+00 2.9127125300391853e+01
1.9070746996085468e+00 2.9127125300391853e+01
ITEM: ATOMS id mol type x y z ix iy iz
4 2 1 3.16309 28.6052 27.9905 0 -1 -1
6 2 2 3.04959 2.2047 27.4288 0 0 -1
5 2 2 3.49204 28.8661 28.8981 0 -1 -1
2 1 2 3.29122 2.79256 3.88469 0 0 0
1 1 1 4.00524 2.3321 3.3573 0 0 0
3 1 2 4.79648 2.16233 3.94477 0 0 0
ITEM: TIMESTEP
19000
ITEM: NUMBER OF ATOMS
6
ITEM: BOX BOUNDS pp pp pp
1.9070746996085468e+00 2.9127125300391853e+01
1.9070746996085468e+00 2.9127125300391853e+01
1.9070746996085468e+00 2.9127125300391853e+01
ITEM: ATOMS id mol type x y z ix iy iz
4 2 1 4.7645 28.6791 28.6006 0 -1 -1
6 2 2 5.43617 2.19193 1.48859 0 0 0
5 2 2 3.94843 28.893 1.91743 0 -1 0
2 1 2 29.2863 2.92589 29.3933 -1 0 -1
1 1 1 2.48394 2.2511 2.7817 0 0 0
3 1 2 29.127 2.12817 3.58918 -1 0 0
ITEM: TIMESTEP
19500
ITEM: NUMBER OF ATOMS
6
ITEM: BOX BOUNDS pp pp pp
1.9070746996085468e+00 2.9127125300391853e+01
1.9070746996085468e+00 2.9127125300391853e+01
1.9070746996085468e+00 2.9127125300391853e+01
ITEM: ATOMS id mol type x y z ix iy iz
2 1 2 1.83328 28.6062 28.0778 0 -1 -1
1 1 1 2.3853 29.0609 28.7767 0 -1 -1
3 1 2 29.1589 28.968 29.6666 -1 -1 -1
6 2 2 5.64917 2.05617 2.09987 0 0 0
4 2 1 4.85796 1.97871 2.70649 0 0 0
5 2 2 4.01869 1.99145 2.16293 0 0 0
ITEM: TIMESTEP
20000
ITEM: NUMBER OF ATOMS
6
ITEM: BOX BOUNDS pp pp pp
1.9070746996085468e+00 2.9127125300391853e+01
1.9070746996085468e+00 2.9127125300391853e+01
1.9070746996085468e+00 2.9127125300391853e+01
ITEM: ATOMS id mol type x y z ix iy iz
2 1 2 4.56401 28.2089 27.7153 0 -1 -1
1 1 1 3.70945 28.6107 28.0444 0 -1 -1
3 1 2 3.12959 28.8459 27.2643 0 -1 -1
6 2 2 2.6574 29.235 3.80411 0 -1 0
4 2 1 3.49396 2.45662 3.47999 0 0 0
5 2 2 3.72161 2.11184 2.56933 0 0 0
ITEM: TIMESTEP
20500
ITEM: NUMBER OF ATOMS
6
ITEM: BOX BOUNDS pp pp pp
1.9070746996085468e+00 2.9127125300391853e+01
1.9070746996085468e+00 2.9127125300391853e+01
1.9070746996085468e+00 2.9127125300391853e+01
ITEM: ATOMS id mol type x y z ix iy iz
6 2 2 28.7562 29.0269 29.4364 -1 -1 -1
4 2 1 2.31987 2.25581 2.64547 0 0 0
5 2 2 3.16128 1.9642 2.1905 0 0 0
2 1 2 5.32562 28.131 2.13032 0 -1 0
1 1 1 4.79714 28.8013 1.60941 0 -1 0
3 1 2 5.42073 2.22141 28.3807 0 0 -1
ITEM: TIMESTEP
21000
ITEM: NUMBER OF ATOMS
6
ITEM: BOX BOUNDS pp pp pp
1.9070746996085468e+00 2.9127125300391853e+01
1.9070746996085468e+00 2.9127125300391853e+01
1.9070746996085468e+00 2.9127125300391853e+01
ITEM: ATOMS id mol type x y z ix iy iz
6 2 2 1.98351 28.1589 28.6131 0 -1 -1
4 2 1 2.5787 28.9165 28.3451 0 -1 -1
5 2 2 3.35367 28.9704 28.9748 0 -1 -1
2 1 2 4.15172 2.81157 3.5605 0 0 0
1 1 1 4.56558 2.10431 2.98735 0 0 0
3 1 2 5.52214 1.97934 3.25073 0 0 0
ITEM: TIMESTEP
21500
ITEM: NUMBER OF ATOMS
6
ITEM: BOX BOUNDS pp pp pp
1.9070746996085468e+00 2.9127125300391853e+01
1.9070746996085468e+00 2.9127125300391853e+01
1.9070746996085468e+00 2.9127125300391853e+01
ITEM: ATOMS id mol type x y z ix iy iz
2 1 2 2.17597 2.31628 3.67117 0 0 0
1 1 1 3.08489 2.38272 3.25952 0 0 0
3 1 2 3.74221 2.68481 3.94993 0 0 0
5 2 2 3.76864 28.9758 28.9344 0 -1 -1
4 2 1 4.13692 28.5579 28.1039 0 -1 -1
6 2 2 4.0937 1.99597 27.3522 0 0 -1
ITEM: TIMESTEP
22000
ITEM: NUMBER OF ATOMS
6
ITEM: BOX BOUNDS pp pp pp
1.9070746996085468e+00 2.9127125300391853e+01
1.9070746996085468e+00 2.9127125300391853e+01
1.9070746996085468e+00 2.9127125300391853e+01
ITEM: ATOMS id mol type x y z ix iy iz
2 1 2 28.94 28.5144 29.0809 -1 -1 -1
1 1 1 2.23601 2.05816 2.24863 0 0 0
3 1 2 28.8596 2.59439 2.84583 -1 0 0
5 2 2 4.04858 29.0174 1.98157 0 -1 0
4 2 1 5.04342 28.9166 1.96956 0 -1 0
6 2 2 5.45776 2.5247 28.8121 0 0 -1
ITEM: TIMESTEP
22500
ITEM: NUMBER OF ATOMS
6
ITEM: BOX BOUNDS pp pp pp
1.9070746996085468e+00 2.9127125300391853e+01
1.9070746996085468e+00 2.9127125300391853e+01
1.9070746996085468e+00 2.9127125300391853e+01
ITEM: ATOMS id mol type x y z ix iy iz
1 1 1 3.20445 28.6697 28.0918 0 -1 -1
3 1 2 3.50498 28.3335 27.1992 0 -1 -1
5 2 2 3.74863 2.15196 2.48375 0 0 0
2 1 2 2.2111 28.5803 28.1644 0 -1 -1
6 2 2 4.88407 2.78454 3.4723 0 0 0
4 2 1 3.98155 2.35553 3.4347 0 0 0
ITEM: TIMESTEP
23000
ITEM: NUMBER OF ATOMS
6
ITEM: BOX BOUNDS pp pp pp
1.9070746996085468e+00 2.9127125300391853e+01
1.9070746996085468e+00 2.9127125300391853e+01
1.9070746996085468e+00 2.9127125300391853e+01
ITEM: ATOMS id mol type x y z ix iy iz
1 1 1 4.39572 28.6154 28.3088 0 -1 -1
3 1 2 4.60195 28.877 27.366 0 -1 -1
5 2 2 3.31145 2.00191 2.50477 0 0 0
2 1 2 4.84184 27.7453 28.5185 0 -1 -1
6 2 2 2.99949 3.33506 3.39473 0 0 0
4 2 1 2.7017 2.40299 3.18839 0 0 0
ITEM: TIMESTEP
23500
ITEM: NUMBER OF ATOMS
6
ITEM: BOX BOUNDS pp pp pp
1.9070746996085468e+00 2.9127125300391853e+01
1.9070746996085468e+00 2.9127125300391853e+01
1.9070746996085468e+00 2.9127125300391853e+01
ITEM: ATOMS id mol type x y z ix iy iz
5 2 2 3.18079 29.1029 29.1508 0 -1 -1
6 2 2 28.8771 29.6611 28.9681 -1 -1 -1
4 2 1 2.32013 28.9804 28.6565 0 -1 -1
1 1 1 4.80798 2.01551 2.69075 0 0 0
3 1 2 5.23647 2.44919 3.48342 0 0 0
2 1 2 5.1933 28.3218 2.56189 0 -1 0
ITEM: TIMESTEP
24000
ITEM: NUMBER OF ATOMS
6
ITEM: BOX BOUNDS pp pp pp
1.9070746996085468e+00 2.9127125300391853e+01
1.9070746996085468e+00 2.9127125300391853e+01
1.9070746996085468e+00 2.9127125300391853e+01
ITEM: ATOMS id mol type x y z ix iy iz
5 2 2 3.54083 28.7625 28.9622 0 -1 -1
6 2 2 3.65856 2.11397 27.437 0 0 -1
4 2 1 3.36705 28.5596 27.9985 0 -1 -1
1 1 1 3.78059 2.37988 3.34801 0 0 0
3 1 2 4.08806 29.0171 4.10014 0 -1 0
2 1 2 3.67026 3.31781 3.67682 0 0 0
ITEM: TIMESTEP
24500
ITEM: NUMBER OF ATOMS
6
ITEM: BOX BOUNDS pp pp pp
1.9070746996085468e+00 2.9127125300391853e+01
1.9070746996085468e+00 2.9127125300391853e+01
1.9070746996085468e+00 2.9127125300391853e+01
ITEM: ATOMS id mol type x y z ix iy iz
1 1 1 2.44543 2.29528 2.67722 0 0 0
2 1 2 28.9798 2.97315 2.94236 -1 0 0
3 1 2 2.08025 28.5963 2.82542 0 -1 0
5 2 2 3.93494 28.9511 1.87876 0 -1 0
6 2 2 5.36661 2.26232 28.5202 0 0 -1
4 2 1 4.81664 28.6712 28.719 0 -1 -1
ITEM: TIMESTEP
25000
ITEM: NUMBER OF ATOMS
6
ITEM: BOX BOUNDS pp pp pp
1.9070746996085468e+00 2.9127125300391853e+01
1.9070746996085468e+00 2.9127125300391853e+01
1.9070746996085468e+00 2.9127125300391853e+01
ITEM: ATOMS id mol type x y z ix iy iz
1 1 1 2.58801 28.9452 28.466 0 -1 -1
2 1 2 29.0637 2.23238 28.0316 -1 0 -1
3 1 2 2.58769 28.0023 28.1328 0 -1 -1
5 2 2 3.83403 1.97083 2.48913 0 0 0
6 2 2 5.28194 2.71064 2.64025 0 0 0
4 2 1 4.64848 2.06201 3.06215 0 0 0
ITEM: TIMESTEP
25500
ITEM: NUMBER OF ATOMS
6
ITEM: BOX BOUNDS pp pp pp
1.9070746996085468e+00 2.9127125300391853e+01
1.9070746996085468e+00 2.9127125300391853e+01
1.9070746996085468e+00 2.9127125300391853e+01
ITEM: ATOMS id mol type x y z ix iy iz
5 2 2 3.48647 2.07405 2.49081 0 0 0
6 2 2 4.18978 2.31451 3.94483 0 0 0
4 2 1 3.3518 2.43666 3.41297 0 0 0
2 1 2 4.39802 28.0455 27.5554 0 -1 -1
1 1 1 3.79597 28.6377 28.091 0 -1 -1
3 1 2 2.88137 28.6364 27.6866 0 -1 -1
ITEM: TIMESTEP
26000
ITEM: NUMBER OF ATOMS
6
ITEM: BOX BOUNDS pp pp pp
1.9070746996085468e+00 2.9127125300391853e+01
1.9070746996085468e+00 2.9127125300391853e+01
1.9070746996085468e+00 2.9127125300391853e+01
ITEM: ATOMS id mol type x y z ix iy iz
5 2 2 3.14645 1.94805 2.06353 0 0 0
6 2 2 28.893 2.38757 28.7338 -1 0 -1
4 2 1 2.18086 2.04585 2.30447 0 0 0
2 1 2 5.00754 28.5969 2.85758 0 -1 0
1 1 1 4.92437 28.9798 1.93756 0 -1 0
3 1 2 5.80398 28.9106 28.687 0 -1 -1
ITEM: TIMESTEP
26500
ITEM: NUMBER OF ATOMS
6
ITEM: BOX BOUNDS pp pp pp
1.9070746996085468e+00 2.9127125300391853e+01
1.9070746996085468e+00 2.9127125300391853e+01
1.9070746996085468e+00 2.9127125300391853e+01
ITEM: ATOMS id mol type x y z ix iy iz
4 2 1 2.62081 28.8009 28.3291 0 -1 -1
6 2 2 28.9408 29.0799 28.6637 -1 -1 -1
5 2 2 3.2939 28.8985 29.0622 0 -1 -1
2 1 2 4.63535 2.94081 3.64529 0 0 0
3 1 2 5.35637 29.2506 2.49716 0 -1 0
1 1 1 4.52377 2.1551 3.03684 0 0 0
ITEM: TIMESTEP
27000
ITEM: NUMBER OF ATOMS
6
ITEM: BOX BOUNDS pp pp pp
1.9070746996085468e+00 2.9127125300391853e+01
1.9070746996085468e+00 2.9127125300391853e+01
1.9070746996085468e+00 2.9127125300391853e+01
ITEM: ATOMS id mol type x y z ix iy iz
4 2 1 4.35974 28.5667 28.1845 0 -1 -1
6 2 2 5.25129 28.4209 28.6133 0 -1 -1
5 2 2 3.74661 29.0155 28.8346 0 -1 -1
2 1 2 29.1111 2.60869 2.95131 -1 0 0
3 1 2 2.98802 2.31692 4.12527 0 0 0
1 1 1 2.85598 2.42625 3.14007 0 0 0
ITEM: TIMESTEP
27500
ITEM: NUMBER OF ATOMS
6
ITEM: BOX BOUNDS pp pp pp
1.9070746996085468e+00 2.9127125300391853e+01
1.9070746996085468e+00 2.9127125300391853e+01
1.9070746996085468e+00 2.9127125300391853e+01
ITEM: ATOMS id mol type x y z ix iy iz
2 1 2 28.7779 1.82823 28.5373 -1 0 -1
3 1 2 28.9878 2.42783 2.82159 -1 0 0
1 1 1 2.23189 2.04149 29.2446 0 0 -1
4 2 1 5.05914 28.9971 2.21433 0 -1 0
6 2 2 5.28592 28.2369 1.6055 0 -1 0
5 2 2 4.07026 1.92557 2.20797 0 0 0
ITEM: TIMESTEP
28000
ITEM: NUMBER OF ATOMS
6
ITEM: BOX BOUNDS pp pp pp
1.9070746996085468e+00 2.9127125300391853e+01
1.9070746996085468e+00 2.9127125300391853e+01
1.9070746996085468e+00 2.9127125300391853e+01
ITEM: ATOMS id mol type x y z ix iy iz
2 1 2 3.1927 27.8254 27.8123 0 -1 -1
3 1 2 2.55698 2.08899 27.5648 0 0 -1
1 1 1 3.18016 28.7723 28.1336 0 -1 -1
4 2 1 4.01756 2.24014 3.40163 0 0 0
6 2 2 4.66812 2.99424 3.31156 0 0 0
5 2 2 3.74507 1.92465 2.49267 0 0 0
ITEM: TIMESTEP
28500
ITEM: NUMBER OF ATOMS
6
ITEM: BOX BOUNDS pp pp pp
1.9070746996085468e+00 2.9127125300391853e+01
1.9070746996085468e+00 2.9127125300391853e+01
1.9070746996085468e+00 2.9127125300391853e+01
ITEM: ATOMS id mol type x y z ix iy iz
4 2 1 2.48152 2.20055 2.90663 0 0 0
6 2 2 29.2835 3.05799 2.60665 -1 0 0
5 2 2 3.25158 1.97813 2.30869 0 0 0
3 1 2 4.74891 28.2225 27.7878 0 -1 -1
2 1 2 5.4718 28.8145 1.90696 0 -1 0
1 1 1 4.62971 28.8106 28.5877 0 -1 -1
ITEM: TIMESTEP
29000
ITEM: NUMBER OF ATOMS
6
ITEM: BOX BOUNDS pp pp pp
1.9070746996085468e+00 2.9127125300391853e+01
1.9070746996085468e+00 2.9127125300391853e+01
1.9070746996085468e+00 2.9127125300391853e+01
ITEM: ATOMS id mol type x y z ix iy iz
4 2 1 2.30127 29.1244 28.8236 0 -1 -1
6 2 2 29.024 28.4892 29.4144 -1 -1 -1
5 2 2 3.26089 29.1577 29.1029 0 -1 -1
3 1 2 5.58232 28.6257 2.18803 0 -1 0
2 1 2 5.11461 2.65064 3.13553 0 0 0
1 1 1 4.7957 1.91005 2.54408 0 0 0
ITEM: TIMESTEP
29500
ITEM: NUMBER OF ATOMS
6
ITEM: BOX BOUNDS pp pp pp
1.9070746996085468e+00 2.9127125300391853e+01
1.9070746996085468e+00 2.9127125300391853e+01
1.9070746996085468e+00 2.9127125300391853e+01
ITEM: ATOMS id mol type x y z ix iy iz
5 2 2 3.65944 28.9441 28.9812 0 -1 -1
2 1 2 3.29222 2.19648 4.2707 0 0 0
3 1 2 3.44613 3.31703 3.09286 0 0 0
1 1 1 3.2868 2.34815 3.28228 0 0 0
6 2 2 3.86857 27.6627 27.9908 0 -1 -1
4 2 1 3.9044 28.6601 28.0542 0 -1 -1
ITEM: TIMESTEP
30000
ITEM: NUMBER OF ATOMS
6
ITEM: BOX BOUNDS pp pp pp
1.9070746996085468e+00 2.9127125300391853e+01
1.9070746996085468e+00 2.9127125300391853e+01
1.9070746996085468e+00 2.9127125300391853e+01
ITEM: ATOMS id mol type x y z ix iy iz
5 2 2 3.96615 29.0514 1.90012 0 -1 0
2 1 2 28.7926 29.0465 2.8309 -1 -1 0
3 1 2 2.53835 3.07142 3.25952 0 0 0
1 1 1 2.44728 2.27862 2.65688 0 0 0
6 2 2 4.70626 27.8783 28.2583 0 -1 -1
4 2 1 4.83735 28.748 28.7342 0 -1 -1
ITEM: TIMESTEP
30500
ITEM: NUMBER OF ATOMS
6
ITEM: BOX BOUNDS pp pp pp
1.9070746996085468e+00 2.9127125300391853e+01
1.9070746996085468e+00 2.9127125300391853e+01
1.9070746996085468e+00 2.9127125300391853e+01
ITEM: ATOMS id mol type x y z ix iy iz
3 1 2 3.23855 28.2996 27.6668 0 -1 -1
1 1 1 2.76653 28.8471 28.3577 0 -1 -1
2 1 2 1.84836 29.0741 28.033 0 -1 -1
5 2 2 3.8037 2.01138 2.42817 0 0 0
6 2 2 4.07089 2.39876 3.99188 0 0 0
4 2 1 4.50687 2.18232 3.11834 0 0 0
ITEM: TIMESTEP
31000
ITEM: NUMBER OF ATOMS
6
ITEM: BOX BOUNDS pp pp pp
1.9070746996085468e+00 2.9127125300391853e+01
1.9070746996085468e+00 2.9127125300391853e+01
1.9070746996085468e+00 2.9127125300391853e+01
ITEM: ATOMS id mol type x y z ix iy iz
3 1 2 4.66419 28.9844 27.5212 0 -1 -1
1 1 1 3.98645 28.6087 28.1532 0 -1 -1
2 1 2 3.68155 27.7155 27.8226 0 -1 -1
5 2 2 3.50608 2.01917 2.52443 0 0 0
6 2 2 2.49276 3.10207 3.20791 0 0 0
4 2 1 3.19982 2.41839 3.38862 0 0 0
ITEM: TIMESTEP
31500
ITEM: NUMBER OF ATOMS
6
ITEM: BOX BOUNDS pp pp pp
1.9070746996085468e+00 2.9127125300391853e+01
1.9070746996085468e+00 2.9127125300391853e+01
1.9070746996085468e+00 2.9127125300391853e+01
ITEM: ATOMS id mol type x y z ix iy iz
5 2 2 3.13479 1.84079 2.11979 0 0 0
6 2 2 29.116 29.6758 2.988 -1 -1 0
4 2 1 2.16666 29.3103 29.3175 0 -1 -1
3 1 2 5.71697 28.5883 2.58705 0 -1 0
1 1 1 4.92002 1.70554 2.08594 0 0 0
2 1 2 5.17752 1.89426 28.3583 0 0 -1
ITEM: TIMESTEP
32000
ITEM: NUMBER OF ATOMS
6